 argument  1 = opt_water_nwchem.nw



============================== echo of input deck ==============================
start opt_water_nwchem
echo
geometry noautoz
O   -0.00110000   0.36310000  -0.00000000
H   -0.82500000  -0.18190000  -0.00000000
H    0.82610000  -0.18120000   0.00000000
  zcoord
    bond 1 2
  end
end
charge 0
constraints
  spring bond 1 2 20 1.7951
end
memory 4000 mb
driver
 gmax 0.002
  grms 0.0005
  xmax 0.01
   xrms 0.007
  eprec 0.00003
end
basis
  *   library Def2-SVP
end
task scf optimize
task esp
================================================================================


                                         
                                         


              Northwest Computational Chemistry Package (NWChem) 6.6
              ------------------------------------------------------


                    Environmental Molecular Sciences Laboratory
                       Pacific Northwest National Laboratory
                                Richland, WA 99352

                              Copyright (c) 1994-2015
                       Pacific Northwest National Laboratory
                            Battelle Memorial Institute

             NWChem is an open-source computational chemistry package
                        distributed under the terms of the
                      Educational Community License (ECL) 2.0
             A copy of the license is included with this distribution
                              in the LICENSE.TXT file

                                  ACKNOWLEDGMENT
                                  --------------

            This software and its documentation were developed at the
            EMSL at Pacific Northwest National Laboratory, a multiprogram
            national laboratory, operated for the U.S. Department of Energy
            by Battelle under Contract Number DE-AC05-76RL01830. Support
            for this work was provided by the Department of Energy Office
            of Biological and Environmental Research, Office of Basic
            Energy Sciences, and the Office of Advanced Scientific Computing.


           Job information
           ---------------

    hostname        = aleph.chem.ox.ac.uk
    program         = /usr/local/NWChem/bin/nwchem
    date            = Tue May 19 13:59:37 2020

    compiled        = Mon_Apr_24_13:40:06_2017
    source          = /root/nwchem-6.6
    nwchem branch   = 6.6
    nwchem revision = 27746
    ga revision     = 10594
    input           = opt_water_nwchem.nw
    prefix          = opt_water_nwchem.
    data base       = ./opt_water_nwchem.db
    status          = startup
    nproc           =        1
    time left       =     -1s



           Memory information
           ------------------

    heap     =  131071994 doubles =   1000.0 Mbytes
    stack    =  131071999 doubles =   1000.0 Mbytes
    global   =  262144000 doubles =   2000.0 Mbytes (distinct from heap & stack)
    total    =  524287993 doubles =   4000.0 Mbytes
    verify   = yes
    hardfail = no 


           Directory information
           ---------------------

  0 permanent = .
  0 scratch   = .




                                NWChem Input Module
                                -------------------


 User specification of redundant internal variables 
 --------------------------------------------------

   i   j   k   l     value       name   frz
  --- --- --- --- ------------ -------- ---
    1   2                      User001    F


 Scaling coordinates for geometry "geometry" by  1.889725989
 (inverse scale =  0.529177249)

 C2V symmetry detected


                             Geometry "geometry" -> ""
                             -------------------------

 Output coordinates in angstroms (scale by  1.889725989 to convert to a.u.)

  No.       Tag          Charge          X              Y              Z
 ---- ---------------- ---------- -------------- -------------- --------------
    1 O                    8.0000     0.00000000     0.00000000     0.10892952
    2 H                    1.0000     0.82554896     0.00000000    -0.43571807
    3 H                    1.0000    -0.82554896     0.00000000    -0.43571807

      Atomic Mass 
      ----------- 

      O                 15.994910
      H                  1.007825


 Effective nuclear repulsion energy (a.u.)       8.8812837447

            Nuclear Dipole moment (a.u.) 
            ----------------------------
        X                 Y               Z
 ---------------- ---------------- ----------------
     0.0000000000     0.0000000000     0.0000000000

      Symmetry information
      --------------------

 Group name             C2v       
 Group number             16
 Group order               4
 No. of unique centers     2

      Symmetry unique atoms

     1    2


            XYZ format geometry
            -------------------
     3
 geometry
 O                     0.00000000     0.00000000     0.10892952
 H                     0.82554896     0.00000000    -0.43571807
 H                    -0.82554896     0.00000000    -0.43571807

 ==============================================================================
                                internuclear distances
 ------------------------------------------------------------------------------
       center one      |      center two      | atomic units |  angstroms
 ------------------------------------------------------------------------------
    2 H                |   1 O                |     1.86899  |     0.98903
    3 H                |   1 O                |     1.86899  |     0.98903
 ------------------------------------------------------------------------------
                         number of included internuclear distances:          2
 ==============================================================================



 ==============================================================================
                                 internuclear angles
 ------------------------------------------------------------------------------
        center 1       |       center 2       |       center 3       |  degrees
 ------------------------------------------------------------------------------
    2 H                |   1 O                |   3 H                |   113.17
 ------------------------------------------------------------------------------
                            number of included internuclear angles:          1
 ==============================================================================



 no fixed atoms found
 spring bond (i,j,k,r0)          1       2  20.000   1.795
  library name resolved from: environment
  library file name is: </usr/local/NWChem/data/libraries/>
  


 Summary of "ao basis" -> "" (cartesian)
 ------------------------------------------------------------------------------
       Tag                 Description            Shells   Functions and Types
 ---------------- ------------------------------  ------  ---------------------
 *                          Def2-SVP                  on all atoms 


                         NWChem Constraints Module
                         -------------------------
 General Information
 -------------------
 no fixed atoms found
 spring bond (i,j,k,r0)          1       2  20.000   1.795
 no springs found


                           NWChem Geometry Optimization
                           ----------------------------


 maximum gradient threshold         (gmax) =   0.002000
 rms gradient threshold             (grms) =   0.000500
 maximum cartesian step threshold   (xmax) =   0.010000
 rms cartesian step threshold       (xrms) =   0.007000
 fixed trust radius                (trust) =   0.300000
 maximum step size to saddle      (sadstp) =   0.100000
 energy precision                  (eprec) =   3.0D-05
 maximum number of steps          (nptopt) =   20
 initial hessian option           (inhess) =    0
 line search option               (linopt) =    1
 hessian update option            (modupd) =    1
 saddle point option              (modsad) =    0
 initial eigen-mode to follow     (moddir) =    0
 initial variable to follow       (vardir) =    0
 follow first negative mode     (firstneg) =    T
 apply conjugacy                    (opcg) =    F
 source of zmatrix                         =           


          -------------------
          Energy Minimization
          -------------------


 Using diagonal initial Hessian 

          --------
          Step   0
          --------


                         Geometry "geometry" -> "geometry"
                         ---------------------------------

 Output coordinates in angstroms (scale by  1.889725989 to convert to a.u.)

  No.       Tag          Charge          X              Y              Z
 ---- ---------------- ---------- -------------- -------------- --------------
    1 O                    8.0000     0.00000000     0.00000000     0.10892952
    2 H                    1.0000     0.82554896     0.00000000    -0.43571807
    3 H                    1.0000    -0.82554896     0.00000000    -0.43571807

      Atomic Mass 
      ----------- 

      O                 15.994910
      H                  1.007825


 Effective nuclear repulsion energy (a.u.)       8.8812837447

            Nuclear Dipole moment (a.u.) 
            ----------------------------
        X                 Y               Z
 ---------------- ---------------- ----------------
     0.0000000000     0.0000000000     0.0000000000

      Symmetry information
      --------------------

 Group name             C2v       
 Group number             16
 Group order               4
 No. of unique centers     2

      Symmetry unique atoms

     1    2

                      Basis "ao basis" -> "ao basis" (cartesian)
                      -----
  O (Oxygen)
  ----------
            Exponent  Coefficients 
       -------------- ---------------------------------------------------------
  1 S  2.26617678E+03 -0.005343
  1 S  3.40870102E+02 -0.039890
  1 S  7.73631352E+01 -0.178539
  1 S  2.14796449E+01 -0.464277
  1 S  6.65894331E+00 -0.443097

  2 S  8.09759757E-01  1.000000

  3 S  2.55307722E-01  1.000000

  4 P  1.77215043E+01  0.043395
  4 P  3.86355054E+00  0.230941
  4 P  1.04809209E+00  0.513753

  5 P  2.76415444E-01  1.000000

  6 D  1.20000000E+00  1.000000

  H (Hydrogen)
  ------------
            Exponent  Coefficients 
       -------------- ---------------------------------------------------------
  1 S  1.30107010E+01  0.019682
  1 S  1.96225720E+00  0.137965
  1 S  4.44537960E-01  0.478319

  2 S  1.21949620E-01  1.000000

  3 P  8.00000000E-01  1.000000



 Summary of "ao basis" -> "ao basis" (cartesian)
 ------------------------------------------------------------------------------
       Tag                 Description            Shells   Functions and Types
 ---------------- ------------------------------  ------  ---------------------
 O                          Def2-SVP                 6       15   3s2p1d
 H                          Def2-SVP                 3        5   2s1p


                                 NWChem SCF Module
                                 -----------------



  ao basis        = "ao basis"
  functions       =    25
  atoms           =     3
  closed shells   =     5
  open shells     =     0
  charge          =   0.00
  wavefunction    = RHF 
  input vectors   = atomic
  output vectors  = ./opt_water_nwchem.movecs
  use symmetry    = T
  symmetry adapt  = T


 Summary of "ao basis" -> "ao basis" (cartesian)
 ------------------------------------------------------------------------------
       Tag                 Description            Shells   Functions and Types
 ---------------- ------------------------------  ------  ---------------------
 O                          Def2-SVP                 6       15   3s2p1d
 H                          Def2-SVP                 3        5   2s1p


      Symmetry analysis of basis
      --------------------------

        a1         12
        a2          2
        b1          7
        b2          4


 Forming initial guess at       0.1s


      Superposition of Atomic Density Guess
      -------------------------------------

 Sum of atomic energies:         -75.68971188

      Non-variational initial energy
      ------------------------------

 Total energy =     -75.789568
 1-e energy   =    -121.152111
 2-e energy   =      36.481259
 HOMO         =      -0.464986
 LUMO         =       0.080011


      Symmetry analysis of molecular orbitals - initial
      -------------------------------------------------

  Numbering of irreducible representations: 

     1 a1          2 a2          3 b1          4 b2      

  Orbital symmetries:

     1 a1          2 a1          3 b1          4 a1          5 b2      
     6 a1          7 b1          8 b1          9 a1         10 a1      
    11 b2         12 b1         13 a1         14 a2         15 a1      


 Starting SCF solution at       0.1s



 ----------------------------------------------
         Quadratically convergent ROHF

 Convergence threshold     :          1.000E-04
 Maximum no. of iterations :           30
 Final Fock-matrix accuracy:          1.000E-07
 ----------------------------------------------


 #quartets = 1.953D+03 #integrals = 1.805D+04 #direct =  0.0% #cached =100.0%


 Integral file          = ./opt_water_nwchem.aoints.0
 Record size in doubles =  65536        No. of integs per rec  =  43688
 Max. records in memory =      2        Max. records in file   = 181890
 No. of bits per label  =      8        No. of bits per value  =     64


              iter       energy          gnorm     gmax       time
             ----- ------------------- --------- --------- --------
                 1      -75.9209521710  8.42D-01  3.77D-01      0.1
                 2      -75.9539328071  1.87D-01  8.40D-02      0.1
                 3      -75.9564287566  1.59D-02  7.46D-03      0.1
                 4      -75.9564480197  2.36D-04  8.35D-05      0.1
                 5      -75.9564480238  4.02D-06  1.94D-06      0.1


       Final RHF  results 
       ------------------ 

         Total SCF energy =    -75.956448023761
      One-electron energy =   -122.500571399286
      Two-electron energy =     37.662839630799
 Nuclear repulsion energy =      8.881283744726

        Time for solution =      0.0s



       Symmetry analysis of molecular orbitals - final
       -----------------------------------------------

  Numbering of irreducible representations: 

     1 a1          2 a2          3 b1          4 b2      

  Orbital symmetries:

     1 a1          2 a1          3 b1          4 a1          5 b2      
     6 a1          7 b1          8 a1          9 b1         10 a1      
    11 b2         12 a1         13 b1         14 a2         15 a1      

             Final eigenvalues
             -----------------

              1      
    1  -20.5538
    2   -1.2961
    3   -0.7007
    4   -0.5450
    5   -0.4919
    6    0.1712
    7    0.2500
    8    0.7991
    9    0.8060
   10    1.1641
   11    1.2041
   12    1.2523
   13    1.2650
   14    1.5678
   15    1.7584

                       ROHF Final Molecular Orbital Analysis
                       -------------------------------------

 Vector    2  Occ=2.000000D+00  E=-1.296086D+00  Symmetry=a1
              MO Center=  2.5D-17, -1.2D-17, -4.5D-02, r^2= 5.2D-01
   Bfn.  Coefficient  Atom+Function         Bfn.  Coefficient  Atom+Function  
  ----- ------------  ---------------      ----- ------------  ---------------
     2      0.543129  1 O  s                  3      0.297992  1 O  s          
     1      0.275315  1 O  s                 16      0.176906  2 H  s          
    21      0.176906  3 H  s          

 Vector    3  Occ=2.000000D+00  E=-7.006640D-01  Symmetry=b1
              MO Center= -1.3D-17,  5.3D-35, -1.1D-01, r^2= 8.0D-01
   Bfn.  Coefficient  Atom+Function         Bfn.  Coefficient  Atom+Function  
  ----- ------------  ---------------      ----- ------------  ---------------
     4      0.483008  1 O  px                16      0.325325  2 H  s          
    21     -0.325325  3 H  s                  7      0.221658  1 O  px         

 Vector    4  Occ=2.000000D+00  E=-5.449908D-01  Symmetry=a1
              MO Center=  5.7D-18, -3.1D-17,  1.6D-01, r^2= 6.9D-01
   Bfn.  Coefficient  Atom+Function         Bfn.  Coefficient  Atom+Function  
  ----- ------------  ---------------      ----- ------------  ---------------
     6      0.555801  1 O  pz                 9      0.388838  1 O  pz         
     3      0.296487  1 O  s                 16     -0.188180  2 H  s          
    21     -0.188180  3 H  s                  2      0.181658  1 O  s          

 Vector    5  Occ=2.000000D+00  E=-4.919046D-01  Symmetry=b2
              MO Center= -7.1D-17, -5.6D-16,  8.9D-02, r^2= 6.0D-01
   Bfn.  Coefficient  Atom+Function         Bfn.  Coefficient  Atom+Function  
  ----- ------------  ---------------      ----- ------------  ---------------
     5      0.632724  1 O  py                 8      0.499559  1 O  py         

 Vector    6  Occ=0.000000D+00  E= 1.711767D-01  Symmetry=a1
              MO Center=  1.2D-16,  8.5D-17, -6.2D-01, r^2= 3.2D+00
   Bfn.  Coefficient  Atom+Function         Bfn.  Coefficient  Atom+Function  
  ----- ------------  ---------------      ----- ------------  ---------------
     3      1.117928  1 O  s                 17     -0.895152  2 H  s          
    22     -0.895152  3 H  s                  9     -0.355220  1 O  pz         
     6     -0.187676  1 O  pz         

 Vector    7  Occ=0.000000D+00  E= 2.499626D-01  Symmetry=b1
              MO Center= -1.5D-16, -1.1D-33, -5.7D-01, r^2= 3.7D+00
   Bfn.  Coefficient  Atom+Function         Bfn.  Coefficient  Atom+Function  
  ----- ------------  ---------------      ----- ------------  ---------------
    17      1.339864  2 H  s                 22     -1.339864  3 H  s          
     7     -0.667018  1 O  px                 4     -0.287807  1 O  px         

 Vector    8  Occ=0.000000D+00  E= 7.991215D-01  Symmetry=a1
              MO Center= -3.3D-16,  1.9D-16, -4.7D-01, r^2= 1.7D+00
   Bfn.  Coefficient  Atom+Function         Bfn.  Coefficient  Atom+Function  
  ----- ------------  ---------------      ----- ------------  ---------------
    16      0.889492  2 H  s                 21      0.889492  3 H  s          
    17     -0.576828  2 H  s                 22     -0.576828  3 H  s          
     2     -0.347204  1 O  s                  3      0.285359  1 O  s          
     6      0.264393  1 O  pz                18      0.199639  2 H  px         
    23     -0.199639  3 H  px         

 Vector    9  Occ=0.000000D+00  E= 8.059568D-01  Symmetry=b1
              MO Center=  1.9D-16,  1.3D-32, -2.3D-01, r^2= 1.7D+00
   Bfn.  Coefficient  Atom+Function         Bfn.  Coefficient  Atom+Function  
  ----- ------------  ---------------      ----- ------------  ---------------
    16      0.964857  2 H  s                 21     -0.964857  3 H  s          
    17     -0.681025  2 H  s                 22      0.681025  3 H  s          
     7     -0.452070  1 O  px                 4     -0.311491  1 O  px         
    12     -0.183358  1 O  dxz        

 Vector   10  Occ=0.000000D+00  E= 1.164094D+00  Symmetry=a1
              MO Center=  0.0D+00,  3.3D-17,  5.4D-01, r^2= 1.0D+00
   Bfn.  Coefficient  Atom+Function         Bfn.  Coefficient  Atom+Function  
  ----- ------------  ---------------      ----- ------------  ---------------
     3      1.045724  1 O  s                  9      0.851685  1 O  pz         
     2     -0.807117  1 O  s                  6     -0.735709  1 O  pz         
    10     -0.154704  1 O  dxx        

 Vector   11  Occ=0.000000D+00  E= 1.204129D+00  Symmetry=b2
              MO Center= -3.9D-16, -3.5D-16,  1.0D-01, r^2= 1.1D+00
   Bfn.  Coefficient  Atom+Function         Bfn.  Coefficient  Atom+Function  
  ----- ------------  ---------------      ----- ------------  ---------------
     8     -1.017610  1 O  py                 5      0.967736  1 O  py         

 Vector   12  Occ=0.000000D+00  E= 1.252277D+00  Symmetry=a1
              MO Center=  0.0D+00,  6.6D-16, -4.3D-01, r^2= 1.3D+00
   Bfn.  Coefficient  Atom+Function         Bfn.  Coefficient  Atom+Function  
  ----- ------------  ---------------      ----- ------------  ---------------
     3      2.816760  1 O  s                  2     -1.192071  1 O  s          
     9     -0.931489  1 O  pz                17     -0.533414  2 H  s          
    22     -0.533414  3 H  s                 16     -0.529582  2 H  s          
    21     -0.529582  3 H  s                  6      0.395693  1 O  pz         
    20     -0.261859  2 H  pz                25     -0.261859  3 H  pz         

 Vector   13  Occ=0.000000D+00  E= 1.264984D+00  Symmetry=b1
              MO Center= -1.6D-16,  5.8D-19,  1.4D-01, r^2= 1.7D+00
   Bfn.  Coefficient  Atom+Function         Bfn.  Coefficient  Atom+Function  
  ----- ------------  ---------------      ----- ------------  ---------------
     7      1.741389  1 O  px                 4     -0.745713  1 O  px         
    17     -0.721087  2 H  s                 22      0.721087  3 H  s          
    16     -0.381340  2 H  s                 21      0.381340  3 H  s          
    18      0.308559  2 H  px                23      0.308559  3 H  px         

 Vector   14  Occ=0.000000D+00  E= 1.567771D+00  Symmetry=a2
              MO Center=  4.4D-16, -6.6D-19, -3.9D-01, r^2= 1.1D+00
   Bfn.  Coefficient  Atom+Function         Bfn.  Coefficient  Atom+Function  
  ----- ------------  ---------------      ----- ------------  ---------------
    19      0.664076  2 H  py                24     -0.664076  3 H  py         
    11      0.289805  1 O  dxy        

 Vector   15  Occ=0.000000D+00  E= 1.758350D+00  Symmetry=a1
              MO Center=  5.6D-17, -5.4D-17, -2.0D-01, r^2= 1.3D+00
   Bfn.  Coefficient  Atom+Function         Bfn.  Coefficient  Atom+Function  
  ----- ------------  ---------------      ----- ------------  ---------------
     3      1.192530  1 O  s                  9     -1.007642  1 O  pz         
    20      0.572661  2 H  pz                25      0.572661  3 H  pz         
    16     -0.547037  2 H  s                 21     -0.547037  3 H  s          
     2     -0.440417  1 O  s                 18      0.347209  2 H  px         
    23     -0.347209  3 H  px                15     -0.272841  1 O  dzz        


 center of mass
 --------------
 x =   0.00000000 y =   0.00000000 z =   0.09066024

 moments of inertia (a.u.)
 ------------------
           1.896262890310           0.000000000000           0.000000000000
           0.000000000000           6.801934416467           0.000000000000
           0.000000000000           0.000000000000           4.905671526158

  Mulliken analysis of the total density
  --------------------------------------

    Atom       Charge   Shell Charges
 -----------   ------   -------------------------------------------------------
    1 O    8     8.41   1.99  1.03  0.63  2.82  1.87  0.06
    2 H    1     0.80   0.65  0.08  0.07
    3 H    1     0.80   0.65  0.08  0.07

       Multipole analysis of the density wrt the origin
       ------------------------------------------------

     L   x y z        total         open         nuclear
     -   - - -        -----         ----         -------
     0   0 0 0     -0.000000      0.000000     10.000000

     1   1 0 0      0.000000      0.000000      0.000000
     1   0 1 0      0.000000      0.000000      0.000000
     1   0 0 1     -0.794965      0.000000      0.000000

     2   2 0 0     -2.733869      0.000000      4.867583
     2   1 1 0     -0.000000      0.000000      0.000000
     2   1 0 1     -0.000000      0.000000      0.000000
     2   0 2 0     -5.285134      0.000000      0.000000
     2   0 1 1      0.000000      0.000000      0.000000
     2   0 0 2     -4.584123      0.000000      1.694919


 Parallel integral file used       1 records with       0 large values

                              NWChem Gradients Module
                              -----------------------



  wavefunction    =   RHF     

  Using symmetry


                         RHF ENERGY GRADIENTS

    atom               coordinates                        gradient
                 x          y          z           x          y          z
   1 O       0.000000   0.000000   0.205847    0.000000   0.000000   0.029540
   2 H       1.560061   0.000000  -0.823388    0.047784   0.000000  -0.014770
   3 H      -1.560061   0.000000  -0.823388   -0.047784   0.000000  -0.014770

                 ----------------------------------------
                 |  Time  |  1-e(secs)   |  2-e(secs)   |
                 ----------------------------------------
                 |  CPU   |       0.00   |       0.03   |
                 ----------------------------------------
                 |  WALL  |       0.00   |       0.03   |
                 ----------------------------------------
 adding spring #                     1
   spring parameters (i,j,k,r0):                    1                    2   20.000000000000000        1.7951000000000008     
   spring length and energy    :   1.8689878041353130       0.10918815199876503     
   spring forces               :  -2.4669932153855809        0.0000000000000000        1.6275738493668161     
   spring deriv                :  -2.9555121654124861     

@ Step       Energy      Delta E   Gmax     Grms     Xrms     Xmax   Walltime
@ ---- ---------------- -------- -------- -------- -------- -------- --------
@    0     -75.84725987  0.0D+00  2.51478  1.40854  0.00000  0.00000      0.2
                                                                    

 Restricting large step in mode    1 eval= 7.4D-02 step=-2.0D+00 new=-3.0D-01
 Restricting large step in mode    2 eval= 5.8D-01 step= 4.7D+00 new= 3.0D-01
 Restricting large step in mode    3 eval= 7.9D-01 step=-4.1D+00 new=-3.0D-01
 Restricting overall step due to large component. alpha=  0.87
                                 NWChem SCF Module
                                 -----------------



  ao basis        = "ao basis"
  functions       =    25
  atoms           =     3
  closed shells   =     5
  open shells     =     0
  charge          =   0.00
  wavefunction    = RHF 
  input vectors   = ./opt_water_nwchem.movecs
  output vectors  = ./opt_water_nwchem.movecs
  use symmetry    = T
  symmetry adapt  = T


 Summary of "ao basis" -> "ao basis" (cartesian)
 ------------------------------------------------------------------------------
       Tag                 Description            Shells   Functions and Types
 ---------------- ------------------------------  ------  ---------------------
 O                          Def2-SVP                 6       15   3s2p1d
 H                          Def2-SVP                 3        5   2s1p


      Symmetry analysis of basis
      --------------------------

        a1         12
        a2          2
        b1          7
        b2          4


 Forming initial guess at       0.2s


 Loading old vectors from job with title :




      Symmetry analysis of molecular orbitals - initial
      -------------------------------------------------

  Numbering of irreducible representations: 

     1 a1          2 a2          3 b1          4 b2      

  Orbital symmetries:

     1 a1          2 a1          3 b1          4 a1          5 b2      
     6 a1          7 b1          8 a1          9 b1         10 a1      
    11 b2         12 a1         13 b1         14 a2         15 a1      


 Starting SCF solution at       0.2s



 ----------------------------------------------
         Quadratically convergent ROHF

 Convergence threshold     :          1.000E-04
 Maximum no. of iterations :           30
 Final Fock-matrix accuracy:          1.000E-07
 ----------------------------------------------


 #quartets = 1.953D+03 #integrals = 1.805D+04 #direct =  0.0% #cached =100.0%


 Integral file          = ./opt_water_nwchem.aoints.0
 Record size in doubles =  65536        No. of integs per rec  =  43688
 Max. records in memory =      2        Max. records in file   = 181890
 No. of bits per label  =      8        No. of bits per value  =     64


              iter       energy          gnorm     gmax       time
             ----- ------------------- --------- --------- --------
                 1      -75.9115323033  5.12D-01  2.72D-01      0.2
                 2      -75.9304127185  1.42D-01  5.36D-02      0.2
                 3      -75.9322799000  1.02D-02  5.66D-03      0.2
                 4      -75.9322968931  4.36D-05  2.00D-05      0.2


       Final RHF  results 
       ------------------ 

         Total SCF energy =    -75.932296893078
      One-electron energy =   -124.395620542447
      Two-electron energy =     38.531525093684
 Nuclear repulsion energy =      9.931798555685

        Time for solution =      0.0s



       Symmetry analysis of molecular orbitals - final
       -----------------------------------------------

  Numbering of irreducible representations: 

     1 a1          2 a2          3 b1          4 b2      

  Orbital symmetries:

     1 a1          2 a1          3 b1          4 a1          5 b2      
     6 a1          7 b1          8 a1          9 b1         10 a1      
    11 b2         12 a1         13 b1         14 a2         15 b1      

             Final eigenvalues
             -----------------

              1      
    1  -20.5214
    2   -1.3322
    3   -0.8034
    4   -0.5170
    5   -0.4922
    6    0.1916
    7    0.2596
    8    0.7704
    9    1.0467
   10    1.1849
   11    1.2054
   12    1.2480
   13    1.2708
   14    1.5371
   15    1.9427

                       ROHF Final Molecular Orbital Analysis
                       -------------------------------------

 Vector    2  Occ=2.000000D+00  E=-1.332221D+00  Symmetry=a1
              MO Center= -9.8D-18, -8.8D-18, -1.6D-01, r^2= 5.1D-01
   Bfn.  Coefficient  Atom+Function         Bfn.  Coefficient  Atom+Function  
  ----- ------------  ---------------      ----- ------------  ---------------
     2      0.527281  1 O  s                  1      0.275902  1 O  s          
     3      0.266388  1 O  s                 16      0.196106  2 H  s          
    21      0.196106  3 H  s          

 Vector    3  Occ=2.000000D+00  E=-8.034060D-01  Symmetry=b1
              MO Center= -4.3D-17,  1.9D-19, -1.8D-01, r^2= 7.1D-01
   Bfn.  Coefficient  Atom+Function         Bfn.  Coefficient  Atom+Function  
  ----- ------------  ---------------      ----- ------------  ---------------
     4      0.492397  1 O  px                16      0.364741  2 H  s          
    21     -0.364741  3 H  s          

 Vector    4  Occ=2.000000D+00  E=-5.169767D-01  Symmetry=a1
              MO Center= -1.8D-17, -2.9D-17,  4.0D-02, r^2= 6.1D-01
   Bfn.  Coefficient  Atom+Function         Bfn.  Coefficient  Atom+Function  
  ----- ------------  ---------------      ----- ------------  ---------------
     6      0.594944  1 O  pz                 9      0.448349  1 O  pz         
     3      0.224288  1 O  s          

 Vector    5  Occ=2.000000D+00  E=-4.922311D-01  Symmetry=b2
              MO Center= -9.0D-17, -6.0D-16, -6.5D-02, r^2= 6.0D-01
   Bfn.  Coefficient  Atom+Function         Bfn.  Coefficient  Atom+Function  
  ----- ------------  ---------------      ----- ------------  ---------------
     5      0.625861  1 O  py                 8      0.499228  1 O  py         

 Vector    6  Occ=0.000000D+00  E= 1.915991D-01  Symmetry=a1
              MO Center=  1.9D-16,  9.8D-17, -4.9D-01, r^2= 3.5D+00
   Bfn.  Coefficient  Atom+Function         Bfn.  Coefficient  Atom+Function  
  ----- ------------  ---------------      ----- ------------  ---------------
     3      1.298029  1 O  s                 17     -0.970041  2 H  s          
    22     -0.970041  3 H  s                  9     -0.216837  1 O  pz         

 Vector    7  Occ=0.000000D+00  E= 2.595859D-01  Symmetry=b1
              MO Center=  5.7D-16, -5.8D-33, -4.8D-01, r^2= 4.0D+00
   Bfn.  Coefficient  Atom+Function         Bfn.  Coefficient  Atom+Function  
  ----- ------------  ---------------      ----- ------------  ---------------
    17      1.440765  2 H  s                 22     -1.440765  3 H  s          
     7     -0.690342  1 O  px                 4     -0.244866  1 O  px         

 Vector    8  Occ=0.000000D+00  E= 7.704353D-01  Symmetry=a1
              MO Center=  2.1D-17,  3.6D-16, -3.9D-01, r^2= 1.4D+00
   Bfn.  Coefficient  Atom+Function         Bfn.  Coefficient  Atom+Function  
  ----- ------------  ---------------      ----- ------------  ---------------
    16      0.939488  2 H  s                 21      0.939488  3 H  s          
    17     -0.405119  2 H  s                 22     -0.405119  3 H  s          
     3     -0.375291  1 O  s                  9      0.227375  1 O  pz         
    18      0.190184  2 H  px                23     -0.190184  3 H  px         

 Vector    9  Occ=0.000000D+00  E= 1.046668D+00  Symmetry=b1
              MO Center=  6.9D-17, -1.9D-33, -3.0D-01, r^2= 1.5D+00
   Bfn.  Coefficient  Atom+Function         Bfn.  Coefficient  Atom+Function  
  ----- ------------  ---------------      ----- ------------  ---------------
    16      0.861054  2 H  s                 21     -0.861054  3 H  s          
    17     -0.612800  2 H  s                 22      0.612800  3 H  s          
     4     -0.441515  1 O  px                 7     -0.245012  1 O  px         
    20     -0.239803  2 H  pz                25      0.239803  3 H  pz         
    12     -0.200808  1 O  dxz               18      0.179979  2 H  px         

 Vector   10  Occ=0.000000D+00  E= 1.184929D+00  Symmetry=a1
              MO Center= -2.3D-17, -1.2D-18,  1.2D-01, r^2= 1.1D+00
   Bfn.  Coefficient  Atom+Function         Bfn.  Coefficient  Atom+Function  
  ----- ------------  ---------------      ----- ------------  ---------------
     9      1.130892  1 O  pz                 6     -0.893016  1 O  pz         
     2     -0.256177  1 O  s                 16      0.233070  2 H  s          
    21      0.233070  3 H  s                 18     -0.160487  2 H  px         
    23      0.160487  3 H  px         

 Vector   11  Occ=0.000000D+00  E= 1.205362D+00  Symmetry=b2
              MO Center= -1.4D-35, -4.0D-17, -3.5D-02, r^2= 1.1D+00
   Bfn.  Coefficient  Atom+Function         Bfn.  Coefficient  Atom+Function  
  ----- ------------  ---------------      ----- ------------  ---------------
     8      1.075340  1 O  py                 5     -0.961375  1 O  py         

 Vector   12  Occ=0.000000D+00  E= 1.247950D+00  Symmetry=a1
              MO Center= -2.2D-16,  2.0D-16, -2.7D-01, r^2= 1.8D+00
   Bfn.  Coefficient  Atom+Function         Bfn.  Coefficient  Atom+Function  
  ----- ------------  ---------------      ----- ------------  ---------------
     3      3.249573  1 O  s                  2     -1.444478  1 O  s          
    17     -0.720119  2 H  s                 22     -0.720119  3 H  s          
     9     -0.363328  1 O  pz                16     -0.307498  2 H  s          
    21     -0.307498  3 H  s                 13     -0.207920  1 O  dyy        
     1     -0.201379  1 O  s                 15     -0.198388  1 O  dzz        

 Vector   13  Occ=0.000000D+00  E= 1.270782D+00  Symmetry=b1
              MO Center= -1.0D-17,  3.5D-18,  8.4D-02, r^2= 1.6D+00
   Bfn.  Coefficient  Atom+Function         Bfn.  Coefficient  Atom+Function  
  ----- ------------  ---------------      ----- ------------  ---------------
     7      2.038356  1 O  px                17     -0.738600  2 H  s          
    22      0.738600  3 H  s                 16     -0.714147  2 H  s          
    21      0.714147  3 H  s                  4     -0.556101  1 O  px         
    18      0.326677  2 H  px                23      0.326677  3 H  px         

 Vector   14  Occ=0.000000D+00  E= 1.537085D+00  Symmetry=a2
              MO Center=  5.6D-17, -1.3D-18, -3.3D-01, r^2= 1.1D+00
   Bfn.  Coefficient  Atom+Function         Bfn.  Coefficient  Atom+Function  
  ----- ------------  ---------------      ----- ------------  ---------------
    19      0.661577  2 H  py                24     -0.661577  3 H  py         
    11      0.235880  1 O  dxy        

 Vector   15  Occ=0.000000D+00  E= 1.942728D+00  Symmetry=b1
              MO Center=  0.0D+00,  3.4D-20, -2.9D-01, r^2= 1.3D+00
   Bfn.  Coefficient  Atom+Function         Bfn.  Coefficient  Atom+Function  
  ----- ------------  ---------------      ----- ------------  ---------------
     7      1.590722  1 O  px                16     -0.809512  2 H  s          
    21      0.809512  3 H  s                 20     -0.608904  2 H  pz         
    25      0.608904  3 H  pz                18     -0.348558  2 H  px         
    23     -0.348558  3 H  px                 4     -0.273689  1 O  px         
    17     -0.245261  2 H  s                 22      0.245261  3 H  s          


 center of mass
 --------------
 x =   0.00000000 y =   0.00000000 z =  -0.15897805

 moments of inertia (a.u.)
 ------------------
           0.600591039176           0.000000000000           0.000000000000
           0.000000000000           5.510043036381           0.000000000000
           0.000000000000           0.000000000000           4.909451997205

  Mulliken analysis of the total density
  --------------------------------------

    Atom       Charge   Shell Charges
 -----------   ------   -------------------------------------------------------
    1 O    8     8.36   1.99  0.97  0.54  2.97  1.82  0.07
    2 H    1     0.82   0.70  0.04  0.08
    3 H    1     0.82   0.70  0.04  0.08

       Multipole analysis of the density wrt the origin
       ------------------------------------------------

     L   x y z        total         open         nuclear
     -   - - -        -----         ----         -------
     0   0 0 0     -0.000000      0.000000     10.000000

     1   1 0 0      0.000000      0.000000      0.000000
     1   0 1 0      0.000000      0.000000      0.000000
     1   0 0 1     -0.533864      0.000000     -2.100000

     2   2 0 0     -2.326423      0.000000      4.871334
     2   1 1 0     -0.000000      0.000000      0.000000
     2   1 0 1     -0.000000      0.000000      0.000000
     2   0 2 0     -5.119913      0.000000      0.000000
     2   0 1 1     -0.000000      0.000000      0.000000
     2   0 0 2     -4.665077      0.000000      0.977821


 Parallel integral file used       1 records with       0 large values

 adding spring #                     1
   spring parameters (i,j,k,r0):                    1                    2   20.000000000000000        1.7951000000000008     
   spring length and energy    :   1.6646860790924189       0.34015581532978034     
 Line search: 
     step= 0.87 grad=-8.6D-01 hess= 1.3D+00 energy=    -75.592141 mode=bracket 
 new step= 0.32                   predicted energy=    -75.985804

          --------
          Step   1
          --------


                         Geometry "geometry" -> "geometry"
                         ---------------------------------

 Output coordinates in angstroms (scale by  1.889725989 to convert to a.u.)

  No.       Tag          Charge          X              Y              Z
 ---- ---------------- ---------- -------------- -------------- --------------
    1 O                    8.0000     0.00000000     0.00000000     0.04981798
    2 H                    1.0000     0.82566738     0.00000000    -0.40616230
    3 H                    1.0000    -0.82566738     0.00000000    -0.40616230

      Atomic Mass 
      ----------- 

      O                 15.994910
      H                  1.007825


 Effective nuclear repulsion energy (a.u.)       9.2970747042

            Nuclear Dipole moment (a.u.) 
            ----------------------------
        X                 Y               Z
 ---------------- ---------------- ----------------
     0.0000000000     0.0000000000    -0.7819322437

      Symmetry information
      --------------------

 Group name             C2v       
 Group number             16
 Group order               4
 No. of unique centers     2

      Symmetry unique atoms

     1    2

                                 NWChem SCF Module
                                 -----------------



  ao basis        = "ao basis"
  functions       =    25
  atoms           =     3
  closed shells   =     5
  open shells     =     0
  charge          =   0.00
  wavefunction    = RHF 
  input vectors   = ./opt_water_nwchem.movecs
  output vectors  = ./opt_water_nwchem.movecs
  use symmetry    = T
  symmetry adapt  = T


 Summary of "ao basis" -> "ao basis" (cartesian)
 ------------------------------------------------------------------------------
       Tag                 Description            Shells   Functions and Types
 ---------------- ------------------------------  ------  ---------------------
 O                          Def2-SVP                 6       15   3s2p1d
 H                          Def2-SVP                 3        5   2s1p


      Symmetry analysis of basis
      --------------------------

        a1         12
        a2          2
        b1          7
        b2          4


 Forming initial guess at       0.3s


 Loading old vectors from job with title :




      Symmetry analysis of molecular orbitals - initial
      -------------------------------------------------

  Numbering of irreducible representations: 

     1 a1          2 a2          3 b1          4 b2      

  Orbital symmetries:

     1 a1          2 a1          3 b1          4 a1          5 b2      
     6 a1          7 b1          8 a1          9 b1         10 a1      
    11 b2         12 a1         13 b1         14 a2         15 b1      


 Starting SCF solution at       0.3s



 ----------------------------------------------
         Quadratically convergent ROHF

 Convergence threshold     :          1.000E-04
 Maximum no. of iterations :           30
 Final Fock-matrix accuracy:          1.000E-07
 ----------------------------------------------


 #quartets = 1.953D+03 #integrals = 1.805D+04 #direct =  0.0% #cached =100.0%


 Integral file          = ./opt_water_nwchem.aoints.0
 Record size in doubles =  65536        No. of integs per rec  =  43688
 Max. records in memory =      2        Max. records in file   = 181890
 No. of bits per label  =      8        No. of bits per value  =     64


              iter       energy          gnorm     gmax       time
             ----- ------------------- --------- --------- --------
                 1      -75.9465184889  3.51D-01  1.96D-01      0.2
                 2      -75.9550022434  9.32D-02  3.67D-02      0.2
                 3      -75.9557710023  6.96D-03  4.14D-03      0.2
                 4      -75.9557795648  2.90D-05  1.35D-05      0.2


       Final RHF  results 
       ------------------ 

         Total SCF energy =    -75.955779564845
      One-electron energy =   -123.265201727954
      Two-electron energy =     38.012347458954
 Nuclear repulsion energy =      9.297074704155

        Time for solution =      0.0s



       Symmetry analysis of molecular orbitals - final
       -----------------------------------------------

  Numbering of irreducible representations: 

     1 a1          2 a2          3 b1          4 b2      

  Orbital symmetries:

     1 a1          2 a1          3 b1          4 a1          5 b2      
     6 a1          7 b1          8 a1          9 b1         10 a1      
    11 b2         12 a1         13 b1         14 a2         15 a1      

             Final eigenvalues
             -----------------

              1      
    1  -20.5409
    2   -1.3114
    3   -0.7404
    4   -0.5357
    5   -0.4918
    6    0.1797
    7    0.2555
    8    0.7968
    9    0.8858
   10    1.1737
   11    1.2065
   12    1.2411
   13    1.2578
   14    1.5551
   15    1.8363

                       ROHF Final Molecular Orbital Analysis
                       -------------------------------------

 Vector    2  Occ=2.000000D+00  E=-1.311431D+00  Symmetry=a1
              MO Center=  1.4D-17, -8.9D-18, -9.3D-02, r^2= 5.2D-01
   Bfn.  Coefficient  Atom+Function         Bfn.  Coefficient  Atom+Function  
  ----- ------------  ---------------      ----- ------------  ---------------
     2      0.536127  1 O  s                  3      0.282024  1 O  s          
     1      0.274961  1 O  s                 16      0.187102  2 H  s          
    21      0.187102  3 H  s          

 Vector    3  Occ=2.000000D+00  E=-7.403684D-01  Symmetry=b1
              MO Center= -7.9D-17,  1.1D-19, -1.3D-01, r^2= 7.6D-01
   Bfn.  Coefficient  Atom+Function         Bfn.  Coefficient  Atom+Function  
  ----- ------------  ---------------      ----- ------------  ---------------
     4      0.485839  1 O  px                16      0.339826  2 H  s          
    21     -0.339826  3 H  s                  7      0.192205  1 O  px         

 Vector    4  Occ=2.000000D+00  E=-5.357414D-01  Symmetry=a1
              MO Center=  9.5D-18, -3.4D-17,  1.3D-01, r^2= 6.5D-01
   Bfn.  Coefficient  Atom+Function         Bfn.  Coefficient  Atom+Function  
  ----- ------------  ---------------      ----- ------------  ---------------
     6      0.570761  1 O  pz                 9      0.409532  1 O  pz         
     3      0.280008  1 O  s                 16     -0.170133  2 H  s          
    21     -0.170133  3 H  s                  2      0.168701  1 O  s          

 Vector    5  Occ=2.000000D+00  E=-4.918133D-01  Symmetry=b2
              MO Center= -2.2D-34,  4.6D-17,  3.1D-02, r^2= 6.0D-01
   Bfn.  Coefficient  Atom+Function         Bfn.  Coefficient  Atom+Function  
  ----- ------------  ---------------      ----- ------------  ---------------
     5      0.629777  1 O  py                 8      0.499666  1 O  py         

 Vector    6  Occ=0.000000D+00  E= 1.797086D-01  Symmetry=a1
              MO Center=  6.6D-17, -2.2D-18, -5.8D-01, r^2= 3.3D+00
   Bfn.  Coefficient  Atom+Function         Bfn.  Coefficient  Atom+Function  
  ----- ------------  ---------------      ----- ------------  ---------------
     3      1.192368  1 O  s                 17     -0.927323  2 H  s          
    22     -0.927323  3 H  s                  9     -0.307945  1 O  pz         
     6     -0.158926  1 O  pz         

 Vector    7  Occ=0.000000D+00  E= 2.554524D-01  Symmetry=b1
              MO Center=  2.0D-16, -3.4D-33, -5.5D-01, r^2= 3.8D+00
   Bfn.  Coefficient  Atom+Function         Bfn.  Coefficient  Atom+Function  
  ----- ------------  ---------------      ----- ------------  ---------------
    17      1.387797  2 H  s                 22     -1.387797  3 H  s          
     7     -0.676842  1 O  px                 4     -0.269170  1 O  px         

 Vector    8  Occ=0.000000D+00  E= 7.967996D-01  Symmetry=a1
              MO Center= -2.5D-17,  3.2D-17, -4.4D-01, r^2= 1.6D+00
   Bfn.  Coefficient  Atom+Function         Bfn.  Coefficient  Atom+Function  
  ----- ------------  ---------------      ----- ------------  ---------------
    16      0.916026  2 H  s                 21      0.916026  3 H  s          
    17     -0.510154  2 H  s                 22     -0.510154  3 H  s          
     2     -0.266135  1 O  s                  6      0.206267  1 O  pz         
    18      0.201078  2 H  px                23     -0.201078  3 H  px         
     9      0.197683  1 O  pz         

 Vector    9  Occ=0.000000D+00  E= 8.858430D-01  Symmetry=b1
              MO Center=  6.2D-17, -1.2D-33, -2.3D-01, r^2= 1.6D+00
   Bfn.  Coefficient  Atom+Function         Bfn.  Coefficient  Atom+Function  
  ----- ------------  ---------------      ----- ------------  ---------------
    16      0.967655  2 H  s                 21     -0.967655  3 H  s          
    17     -0.602295  2 H  s                 22      0.602295  3 H  s          
     7     -0.497803  1 O  px                 4     -0.337821  1 O  px         
    12     -0.195387  1 O  dxz               20     -0.173237  2 H  pz         
    25      0.173237  3 H  pz         

 Vector   10  Occ=0.000000D+00  E= 1.173749D+00  Symmetry=a1
              MO Center= -1.9D-17, -2.8D-19,  4.1D-01, r^2= 1.0D+00
   Bfn.  Coefficient  Atom+Function         Bfn.  Coefficient  Atom+Function  
  ----- ------------  ---------------      ----- ------------  ---------------
     9      1.006202  1 O  pz                 6     -0.810169  1 O  pz         
     2     -0.600491  1 O  s                  3      0.582755  1 O  s          
    16      0.193090  2 H  s                 21      0.193090  3 H  s          

 Vector   11  Occ=0.000000D+00  E= 1.206531D+00  Symmetry=b2
              MO Center= -3.3D-35, -3.8D-17,  5.5D-02, r^2= 1.1D+00
   Bfn.  Coefficient  Atom+Function         Bfn.  Coefficient  Atom+Function  
  ----- ------------  ---------------      ----- ------------  ---------------
     8     -1.041940  1 O  py                 5      0.968351  1 O  py         

 Vector   12  Occ=0.000000D+00  E= 1.241149D+00  Symmetry=a1
              MO Center= -2.4D-16,  1.0D-17, -3.9D-01, r^2= 1.5D+00
   Bfn.  Coefficient  Atom+Function         Bfn.  Coefficient  Atom+Function  
  ----- ------------  ---------------      ----- ------------  ---------------
     3      3.074623  1 O  s                  2     -1.327814  1 O  s          
     9     -0.738960  1 O  pz                17     -0.624732  2 H  s          
    22     -0.624732  3 H  s                 16     -0.450666  2 H  s          
    21     -0.450666  3 H  s                  6      0.286871  1 O  pz         
    20     -0.204827  2 H  pz                25     -0.204827  3 H  pz         

 Vector   13  Occ=0.000000D+00  E= 1.257755D+00  Symmetry=b1
              MO Center=  1.8D-16, -6.7D-33,  9.9D-02, r^2= 1.7D+00
   Bfn.  Coefficient  Atom+Function         Bfn.  Coefficient  Atom+Function  
  ----- ------------  ---------------      ----- ------------  ---------------
     7      1.845699  1 O  px                17     -0.756999  2 H  s          
    22      0.756999  3 H  s                  4     -0.689183  1 O  px         
    16     -0.470840  2 H  s                 21      0.470840  3 H  s          
    18      0.332532  2 H  px                23      0.332532  3 H  px         

 Vector   14  Occ=0.000000D+00  E= 1.555126D+00  Symmetry=a2
              MO Center=  1.5D-34, -1.4D-18, -3.6D-01, r^2= 1.1D+00
   Bfn.  Coefficient  Atom+Function         Bfn.  Coefficient  Atom+Function  
  ----- ------------  ---------------      ----- ------------  ---------------
    19      0.661345  2 H  py                24     -0.661345  3 H  py         
    11      0.273468  1 O  dxy        

 Vector   15  Occ=0.000000D+00  E= 1.836270D+00  Symmetry=a1
              MO Center=  5.6D-17,  1.7D-19, -2.4D-01, r^2= 1.2D+00
   Bfn.  Coefficient  Atom+Function         Bfn.  Coefficient  Atom+Function  
  ----- ------------  ---------------      ----- ------------  ---------------
     3      1.049975  1 O  s                  9     -0.894226  1 O  pz         
    20      0.667710  2 H  pz                25      0.667710  3 H  pz         
    16     -0.452691  2 H  s                 21     -0.452691  3 H  s          
     2     -0.433545  1 O  s                 15     -0.264194  1 O  dzz        
    18      0.241382  2 H  px                23     -0.241382  3 H  px         


 center of mass
 --------------
 x =   0.00000000 y =   0.00000000 z =  -0.00229225

 moments of inertia (a.u.)
 ------------------
           1.329105652771           0.000000000000           0.000000000000
           0.000000000000           6.236184662210           0.000000000000
           0.000000000000           0.000000000000           4.907079009439

  Mulliken analysis of the total density
  --------------------------------------

    Atom       Charge   Shell Charges
 -----------   ------   -------------------------------------------------------
    1 O    8     8.39   1.99  1.01  0.60  2.88  1.85  0.06
    2 H    1     0.81   0.67  0.06  0.07
    3 H    1     0.81   0.67  0.06  0.07

       Multipole analysis of the density wrt the origin
       ------------------------------------------------

     L   x y z        total         open         nuclear
     -   - - -        -----         ----         -------
     0   0 0 0     -0.000000      0.000000     10.000000

     1   1 0 0      0.000000      0.000000      0.000000
     1   0 1 0     -0.000000      0.000000      0.000000
     1   0 0 1     -0.710971      0.000000     -0.781932

     2   2 0 0     -2.560756      0.000000      4.868979
     2   1 1 0      0.000000      0.000000      0.000000
     2   1 0 1     -0.000000      0.000000      0.000000
     2   0 2 0     -5.215216      0.000000      0.000000
     2   0 1 1      0.000000      0.000000      0.000000
     2   0 0 2     -4.604110      0.000000      1.249124


 Parallel integral file used       1 records with       0 large values

                              NWChem Gradients Module
                              -----------------------



  wavefunction    =   RHF     

  Using symmetry


                         RHF ENERGY GRADIENTS

    atom               coordinates                        gradient
                 x          y          z           x          y          z
   1 O       0.000000   0.000000   0.094142    0.000000   0.000000  -0.036854
   2 H       1.560285   0.000000  -0.767535    0.015682   0.000000   0.018427
   3 H      -1.560285   0.000000  -0.767535   -0.015682   0.000000   0.018427

                 ----------------------------------------
                 |  Time  |  1-e(secs)   |  2-e(secs)   |
                 ----------------------------------------
                 |  CPU   |       0.00   |       0.03   |
                 ----------------------------------------
                 |  WALL  |       0.00   |       0.03   |
                 ----------------------------------------
 adding spring #                     1
   spring parameters (i,j,k,r0):                    1                    2   20.000000000000000        1.7951000000000008     
   spring length and energy    :   1.7824079883829944        3.2217431777245048E-003
   spring forces               :  0.44441355439772767       -0.0000000000000000      -0.24543033000331946     
   spring deriv                :  0.50768046468025574     

  Step       Energy      Delta E   Gmax     Grms     Xrms     Xmax   Walltime
  ---- ---------------- -------- -------- -------- -------- -------- --------
@    1     -75.95255782 -1.1D-01  0.44441  0.24295  0.04560  0.11170      0.4
                                                                    

  Warning ... line search gradient +ve    1.0000000000000000        4.3970853657750051E-003
                                 NWChem SCF Module
                                 -----------------



  ao basis        = "ao basis"
  functions       =    25
  atoms           =     3
  closed shells   =     5
  open shells     =     0
  charge          =   0.00
  wavefunction    = RHF 
  input vectors   = ./opt_water_nwchem.movecs
  output vectors  = ./opt_water_nwchem.movecs
  use symmetry    = T
  symmetry adapt  = T


 Summary of "ao basis" -> "ao basis" (cartesian)
 ------------------------------------------------------------------------------
       Tag                 Description            Shells   Functions and Types
 ---------------- ------------------------------  ------  ---------------------
 O                          Def2-SVP                 6       15   3s2p1d
 H                          Def2-SVP                 3        5   2s1p


      Symmetry analysis of basis
      --------------------------

        a1         12
        a2          2
        b1          7
        b2          4


 Forming initial guess at       0.4s


 Loading old vectors from job with title :




      Symmetry analysis of molecular orbitals - initial
      -------------------------------------------------

  Numbering of irreducible representations: 

     1 a1          2 a2          3 b1          4 b2      

  Orbital symmetries:

     1 a1          2 a1          3 b1          4 a1          5 b2      
     6 a1          7 b1          8 a1          9 b1         10 a1      
    11 b2         12 a1         13 b1         14 a2         15 a1      


 Starting SCF solution at       0.4s



 ----------------------------------------------
         Quadratically convergent ROHF

 Convergence threshold     :          1.000E-04
 Maximum no. of iterations :           30
 Final Fock-matrix accuracy:          1.000E-07
 ----------------------------------------------


 #quartets = 1.953D+03 #integrals = 1.805D+04 #direct =  0.0% #cached =100.0%


 Integral file          = ./opt_water_nwchem.aoints.0
 Record size in doubles =  65536        No. of integs per rec  =  43688
 Max. records in memory =      2        Max. records in file   = 181890
 No. of bits per label  =      8        No. of bits per value  =     64


              iter       energy          gnorm     gmax       time
             ----- ------------------- --------- --------- --------
                 1      -75.9472921006  1.32D-01  5.11D-02      0.3
                 2      -75.9484831753  7.44D-03  4.33D-03      0.3
                 3      -75.9484898091  2.56D-05  1.07D-05      0.3


       Final RHF  results 
       ------------------ 

         Total SCF energy =    -75.948489809142
      One-electron energy =   -123.051075012740
      Two-electron energy =     37.942230791839
 Nuclear repulsion energy =      9.160354411759

        Time for solution =      0.0s



       Symmetry analysis of molecular orbitals - final
       -----------------------------------------------

  Numbering of irreducible representations: 

     1 a1          2 a2          3 b1          4 b2      

  Orbital symmetries:

     1 a1          2 a1          3 b1          4 a1          5 b2      
     6 a1          7 b1          8 a1          9 b1         10 a1      
    11 b2         12 a1         13 b1         14 a2         15 a1      

             Final eigenvalues
             -----------------

              1      
    1  -20.5370
    2   -1.2986
    3   -0.7416
    4   -0.5193
    5   -0.4868
    6    0.1768
    7    0.2534
    8    0.7479
    9    0.9140
   10    1.1844
   11    1.2098
   12    1.2355
   13    1.2616
   14    1.5405
   15    1.8813

                       ROHF Final Molecular Orbital Analysis
                       -------------------------------------

 Vector    2  Occ=2.000000D+00  E=-1.298618D+00  Symmetry=a1
              MO Center=  2.2D-17, -1.1D-17, -1.1D-01, r^2= 5.3D-01
   Bfn.  Coefficient  Atom+Function         Bfn.  Coefficient  Atom+Function  
  ----- ------------  ---------------      ----- ------------  ---------------
     2      0.537724  1 O  s                  3      0.297662  1 O  s          
     1      0.275812  1 O  s                 16      0.178603  2 H  s          
    21      0.178603  3 H  s          

 Vector    3  Occ=2.000000D+00  E=-7.416175D-01  Symmetry=b1
              MO Center= -2.9D-17,  1.1D-19, -1.5D-01, r^2= 7.8D-01
   Bfn.  Coefficient  Atom+Function         Bfn.  Coefficient  Atom+Function  
  ----- ------------  ---------------      ----- ------------  ---------------
     4      0.481439  1 O  px                16      0.340856  2 H  s          
    21     -0.340856  3 H  s                  7      0.185521  1 O  px         

 Vector    4  Occ=2.000000D+00  E=-5.193070D-01  Symmetry=a1
              MO Center=  0.0D+00,  1.6D-34,  9.0D-02, r^2= 6.5D-01
   Bfn.  Coefficient  Atom+Function         Bfn.  Coefficient  Atom+Function  
  ----- ------------  ---------------      ----- ------------  ---------------
     6      0.578982  1 O  pz                 9      0.430936  1 O  pz         
     3      0.251256  1 O  s                 16     -0.154723  2 H  s          
    21     -0.154723  3 H  s                  2      0.151897  1 O  s          

 Vector    5  Occ=2.000000D+00  E=-4.867935D-01  Symmetry=b2
              MO Center= -7.0D-36,  8.8D-18, -6.9D-04, r^2= 6.0D-01
   Bfn.  Coefficient  Atom+Function         Bfn.  Coefficient  Atom+Function  
  ----- ------------  ---------------      ----- ------------  ---------------
     5      0.628553  1 O  py                 8      0.502022  1 O  py         

 Vector    6  Occ=0.000000D+00  E= 1.768121D-01  Symmetry=a1
              MO Center=  1.7D-16, -2.2D-18, -5.3D-01, r^2= 3.4D+00
   Bfn.  Coefficient  Atom+Function         Bfn.  Coefficient  Atom+Function  
  ----- ------------  ---------------      ----- ------------  ---------------
     3      1.193258  1 O  s                 17     -0.922141  2 H  s          
    22     -0.922141  3 H  s                  9     -0.283732  1 O  pz         
     6     -0.151375  1 O  pz         

 Vector    7  Occ=0.000000D+00  E= 2.534155D-01  Symmetry=b1
              MO Center=  1.5D-16, -4.2D-35, -5.2D-01, r^2= 3.9D+00
   Bfn.  Coefficient  Atom+Function         Bfn.  Coefficient  Atom+Function  
  ----- ------------  ---------------      ----- ------------  ---------------
    17      1.348216  2 H  s                 22     -1.348216  3 H  s          
     7     -0.686161  1 O  px                 4     -0.268403  1 O  px         

 Vector    8  Occ=0.000000D+00  E= 7.479096D-01  Symmetry=a1
              MO Center=  1.2D-16,  3.6D-17, -4.3D-01, r^2= 1.6D+00
   Bfn.  Coefficient  Atom+Function         Bfn.  Coefficient  Atom+Function  
  ----- ------------  ---------------      ----- ------------  ---------------
    16      0.929492  2 H  s                 21      0.929492  3 H  s          
    17     -0.519468  2 H  s                 22     -0.519468  3 H  s          
     2     -0.228466  1 O  s                  9      0.205894  1 O  pz         
    18      0.170303  2 H  px                23     -0.170303  3 H  px         
     6      0.168885  1 O  pz         

 Vector    9  Occ=0.000000D+00  E= 9.139903D-01  Symmetry=b1
              MO Center=  2.0D-16, -1.3D-20, -2.6D-01, r^2= 1.6D+00
   Bfn.  Coefficient  Atom+Function         Bfn.  Coefficient  Atom+Function  
  ----- ------------  ---------------      ----- ------------  ---------------
    16      0.941461  2 H  s                 21     -0.941461  3 H  s          
    17     -0.633774  2 H  s                 22      0.633774  3 H  s          
     4     -0.390240  1 O  px                 7     -0.380871  1 O  px         
    12     -0.193863  1 O  dxz               20     -0.184540  2 H  pz         
    25      0.184540  3 H  pz         

 Vector   10  Occ=0.000000D+00  E= 1.184403D+00  Symmetry=a1
              MO Center= -1.7D-18, -3.0D-19,  3.3D-01, r^2= 1.0D+00
   Bfn.  Coefficient  Atom+Function         Bfn.  Coefficient  Atom+Function  
  ----- ------------  ---------------      ----- ------------  ---------------
     9      1.005616  1 O  pz                 6     -0.849737  1 O  pz         
     2     -0.517478  1 O  s                  3      0.495437  1 O  s          
    16      0.157189  2 H  s                 21      0.157189  3 H  s          

 Vector   11  Occ=0.000000D+00  E= 1.209829D+00  Symmetry=b2
              MO Center=  1.1D-19, -4.0D-17,  1.7D-02, r^2= 1.1D+00
   Bfn.  Coefficient  Atom+Function         Bfn.  Coefficient  Atom+Function  
  ----- ------------  ---------------      ----- ------------  ---------------
     8     -1.034370  1 O  py                 5      0.970007  1 O  py         

 Vector   12  Occ=0.000000D+00  E= 1.235526D+00  Symmetry=a1
              MO Center=  1.1D-16,  8.0D-18, -3.8D-01, r^2= 1.6D+00
   Bfn.  Coefficient  Atom+Function         Bfn.  Coefficient  Atom+Function  
  ----- ------------  ---------------      ----- ------------  ---------------
     3      3.064395  1 O  s                  2     -1.375484  1 O  s          
    17     -0.640548  2 H  s                 22     -0.640548  3 H  s          
     9     -0.621051  1 O  pz                16     -0.375740  2 H  s          
    21     -0.375740  3 H  s                  6      0.260990  1 O  pz         
    13     -0.189442  1 O  dyy               10     -0.186474  1 O  dxx        

 Vector   13  Occ=0.000000D+00  E= 1.261641D+00  Symmetry=b1
              MO Center= -5.7D-17,  9.6D-22,  9.8D-02, r^2= 1.6D+00
   Bfn.  Coefficient  Atom+Function         Bfn.  Coefficient  Atom+Function  
  ----- ------------  ---------------      ----- ------------  ---------------
     7      1.870472  1 O  px                17     -0.690056  2 H  s          
    22      0.690056  3 H  s                  4     -0.646201  1 O  px         
    16     -0.539862  2 H  s                 21      0.539862  3 H  s          
    18      0.355043  2 H  px                23      0.355043  3 H  px         

 Vector   14  Occ=0.000000D+00  E= 1.540453D+00  Symmetry=a2
              MO Center= -1.3D-34, -1.2D-18, -3.5D-01, r^2= 1.1D+00
   Bfn.  Coefficient  Atom+Function         Bfn.  Coefficient  Atom+Function  
  ----- ------------  ---------------      ----- ------------  ---------------
    19      0.658116  2 H  py                24     -0.658116  3 H  py         
    11      0.277582  1 O  dxy        

 Vector   15  Occ=0.000000D+00  E= 1.881345D+00  Symmetry=a1
              MO Center= -1.1D-16,  3.5D-20, -2.6D-01, r^2= 1.3D+00
   Bfn.  Coefficient  Atom+Function         Bfn.  Coefficient  Atom+Function  
  ----- ------------  ---------------      ----- ------------  ---------------
     3      0.859279  1 O  s                  9     -0.811118  1 O  pz         
    20      0.712598  2 H  pz                25      0.712598  3 H  pz         
     2     -0.416618  1 O  s                 16     -0.350009  2 H  s          
    21     -0.350009  3 H  s                 15     -0.249785  1 O  dzz        
    18      0.161778  2 H  px                23     -0.161778  3 H  px         


 center of mass
 --------------
 x =   0.00000000 y =   0.00000000 z =  -0.05586129

 moments of inertia (a.u.)
 ------------------
           1.047904691565           0.000000000000           0.000000000000
           0.000000000000           6.448877374968           0.000000000000
           0.000000000000           0.000000000000           5.400972683404

  Mulliken analysis of the total density
  --------------------------------------

    Atom       Charge   Shell Charges
 -----------   ------   -------------------------------------------------------
    1 O    8     8.43   1.99  1.00  0.61  2.88  1.89  0.06
    2 H    1     0.79   0.65  0.06  0.07
    3 H    1     0.79   0.65  0.06  0.07

       Multipole analysis of the density wrt the origin
       ------------------------------------------------

     L   x y z        total         open         nuclear
     -   - - -        -----         ----         -------
     0   0 0 0     -0.000000      0.000000     10.000000

     1   1 0 0     -0.000000      0.000000      0.000000
     1   0 1 0      0.000000      0.000000      0.000000
     1   0 0 1     -0.649953      0.000000     -1.232564

     2   2 0 0     -2.291248      0.000000      5.359038
     2   1 1 0     -0.000000      0.000000      0.000000
     2   1 0 1     -0.000000      0.000000      0.000000
     2   0 2 0     -5.243333      0.000000      0.000000
     2   0 1 1     -0.000000      0.000000      0.000000
     2   0 0 2     -4.690804      0.000000      1.088560


 Parallel integral file used       1 records with       0 large values

 adding spring #                     1
   spring parameters (i,j,k,r0):                    1                    2   20.000000000000000        1.7951000000000008     
   spring length and energy    :   1.8069084762011121        2.7888022038442162E-003
 Line search: 
     step=-1.00 grad= 4.4D-03 hess= 1.1D-02 energy=    -75.945701 mode=bracket 
 new step=-0.20                   predicted energy=    -75.952987

          --------
          Step   2
          --------


                         Geometry "geometry" -> "geometry"
                         ---------------------------------

 Output coordinates in angstroms (scale by  1.889725989 to convert to a.u.)

  No.       Tag          Charge          X              Y              Z
 ---- ---------------- ---------- -------------- -------------- --------------
    1 O                    8.0000     0.00000000     0.00000000     0.04316285
    2 H                    1.0000     0.83359021     0.00000000    -0.40283473
    3 H                    1.0000    -0.83359021     0.00000000    -0.40283473

      Atomic Mass 
      ----------- 

      O                 15.994910
      H                  1.007825


 Effective nuclear repulsion energy (a.u.)       9.2732058153

            Nuclear Dipole moment (a.u.) 
            ----------------------------
        X                 Y               Z
 ---------------- ---------------- ----------------
     0.0000000000     0.0000000000    -0.8699669259

      Symmetry information
      --------------------

 Group name             C2v       
 Group number             16
 Group order               4
 No. of unique centers     2

      Symmetry unique atoms

     1    2

                                 NWChem SCF Module
                                 -----------------



  ao basis        = "ao basis"
  functions       =    25
  atoms           =     3
  closed shells   =     5
  open shells     =     0
  charge          =   0.00
  wavefunction    = RHF 
  input vectors   = ./opt_water_nwchem.movecs
  output vectors  = ./opt_water_nwchem.movecs
  use symmetry    = T
  symmetry adapt  = T


 Summary of "ao basis" -> "ao basis" (cartesian)
 ------------------------------------------------------------------------------
       Tag                 Description            Shells   Functions and Types
 ---------------- ------------------------------  ------  ---------------------
 O                          Def2-SVP                 6       15   3s2p1d
 H                          Def2-SVP                 3        5   2s1p


      Symmetry analysis of basis
      --------------------------

        a1         12
        a2          2
        b1          7
        b2          4


 Forming initial guess at       0.4s


 Loading old vectors from job with title :




      Symmetry analysis of molecular orbitals - initial
      -------------------------------------------------

  Numbering of irreducible representations: 

     1 a1          2 a2          3 b1          4 b2      

  Orbital symmetries:

     1 a1          2 a1          3 b1          4 a1          5 b2      
     6 a1          7 b1          8 a1          9 b1         10 a1      
    11 b2         12 a1         13 b1         14 a2         15 a1      


 Starting SCF solution at       0.4s



 ----------------------------------------------
         Quadratically convergent ROHF

 Convergence threshold     :          1.000E-04
 Maximum no. of iterations :           30
 Final Fock-matrix accuracy:          1.000E-07
 ----------------------------------------------


 #quartets = 1.953D+03 #integrals = 1.805D+04 #direct =  0.0% #cached =100.0%


 Integral file          = ./opt_water_nwchem.aoints.0
 Record size in doubles =  65536        No. of integs per rec  =  43688
 Max. records in memory =      2        Max. records in file   = 181890
 No. of bits per label  =      8        No. of bits per value  =     64


              iter       energy          gnorm     gmax       time
             ----- ------------------- --------- --------- --------
                 1      -75.9538358433  1.05D-01  4.20D-02      0.4
                 2      -75.9545601600  5.72D-03  3.21D-03      0.4
                 3      -75.9545635768  2.26D-05  8.99D-06      0.4


       Final RHF  results 
       ------------------ 

         Total SCF energy =    -75.954563576759
      One-electron energy =   -123.228271347944
      Two-electron energy =     38.000501955841
 Nuclear repulsion energy =      9.273205815344

        Time for solution =      0.0s



       Symmetry analysis of molecular orbitals - final
       -----------------------------------------------

  Numbering of irreducible representations: 

     1 a1          2 a2          3 b1          4 b2      

  Orbital symmetries:

     1 a1          2 a1          3 b1          4 a1          5 b2      
     6 a1          7 b1          8 a1          9 b1         10 a1      
    11 b2         12 a1         13 b1         14 a2         15 a1      

             Final eigenvalues
             -----------------

              1      
    1  -20.5401
    2   -1.3091
    3   -0.7410
    4   -0.5325
    5   -0.4909
    6    0.1793
    7    0.2551
    8    0.7871
    9    0.8918
   10    1.1758
   11    1.2071
   12    1.2398
   13    1.2579
   14    1.5519
   15    1.8469

                       ROHF Final Molecular Orbital Analysis
                       -------------------------------------

 Vector    2  Occ=2.000000D+00  E=-1.309060D+00  Symmetry=a1
              MO Center=  8.0D-18, -1.1D-17, -9.6D-02, r^2= 5.2D-01
   Bfn.  Coefficient  Atom+Function         Bfn.  Coefficient  Atom+Function  
  ----- ------------  ---------------      ----- ------------  ---------------
     2      0.536444  1 O  s                  3      0.285022  1 O  s          
     1      0.275143  1 O  s                 16      0.185457  2 H  s          
    21      0.185457  3 H  s          

 Vector    3  Occ=2.000000D+00  E=-7.410462D-01  Symmetry=b1
              MO Center= -3.3D-17,  1.1D-19, -1.4D-01, r^2= 7.7D-01
   Bfn.  Coefficient  Atom+Function         Bfn.  Coefficient  Atom+Function  
  ----- ------------  ---------------      ----- ------------  ---------------
     4      0.484995  1 O  px                16      0.340150  2 H  s          
    21     -0.340150  3 H  s                  7      0.190639  1 O  px         

 Vector    4  Occ=2.000000D+00  E=-5.324920D-01  Symmetry=a1
              MO Center= -3.7D-18, -3.6D-20,  1.2D-01, r^2= 6.5D-01
   Bfn.  Coefficient  Atom+Function         Bfn.  Coefficient  Atom+Function  
  ----- ------------  ---------------      ----- ------------  ---------------
     6      0.572417  1 O  pz                 9      0.413849  1 O  pz         
     3      0.274453  1 O  s                 16     -0.167158  2 H  s          
    21     -0.167158  3 H  s                  2      0.165488  1 O  s          

 Vector    5  Occ=2.000000D+00  E=-4.908984D-01  Symmetry=b2
              MO Center= -6.9D-36,  9.0D-18,  2.5D-02, r^2= 6.0D-01
   Bfn.  Coefficient  Atom+Function         Bfn.  Coefficient  Atom+Function  
  ----- ------------  ---------------      ----- ------------  ---------------
     5      0.629545  1 O  py                 8      0.500106  1 O  py         

 Vector    6  Occ=0.000000D+00  E= 1.793057D-01  Symmetry=a1
              MO Center= -2.5D-17, -2.1D-18, -5.7D-01, r^2= 3.3D+00
   Bfn.  Coefficient  Atom+Function         Bfn.  Coefficient  Atom+Function  
  ----- ------------  ---------------      ----- ------------  ---------------
     3      1.193149  1 O  s                 17     -0.926831  2 H  s          
    22     -0.926831  3 H  s                  9     -0.303332  1 O  pz         
     6     -0.157484  1 O  pz         

 Vector    7  Occ=0.000000D+00  E= 2.550640D-01  Symmetry=b1
              MO Center=  6.3D-16,  4.2D-35, -5.4D-01, r^2= 3.8D+00
   Bfn.  Coefficient  Atom+Function         Bfn.  Coefficient  Atom+Function  
  ----- ------------  ---------------      ----- ------------  ---------------
    17      1.379905  2 H  s                 22     -1.379905  3 H  s          
     7     -0.678627  1 O  px                 4     -0.268931  1 O  px         

 Vector    8  Occ=0.000000D+00  E= 7.871116D-01  Symmetry=a1
              MO Center=  1.7D-17,  3.4D-18, -4.3D-01, r^2= 1.6D+00
   Bfn.  Coefficient  Atom+Function         Bfn.  Coefficient  Atom+Function  
  ----- ------------  ---------------      ----- ------------  ---------------
    16      0.920035  2 H  s                 21      0.920035  3 H  s          
    17     -0.510458  2 H  s                 22     -0.510458  3 H  s          
     2     -0.257488  1 O  s                  9      0.201944  1 O  pz         
     6      0.198208  1 O  pz                18      0.194779  2 H  px         
    23     -0.194779  3 H  px         

 Vector    9  Occ=0.000000D+00  E= 8.917559D-01  Symmetry=b1
              MO Center=  1.0D-16, -5.6D-35, -2.4D-01, r^2= 1.6D+00
   Bfn.  Coefficient  Atom+Function         Bfn.  Coefficient  Atom+Function  
  ----- ------------  ---------------      ----- ------------  ---------------
    16      0.963948  2 H  s                 21     -0.963948  3 H  s          
    17     -0.606825  2 H  s                 22      0.606825  3 H  s          
     7     -0.479316  1 O  px                 4     -0.347205  1 O  px         
    12     -0.195437  1 O  dxz               20     -0.176156  2 H  pz         
    25      0.176156  3 H  pz         

 Vector   10  Occ=0.000000D+00  E= 1.175802D+00  Symmetry=a1
              MO Center=  6.9D-18, -1.4D-18,  3.9D-01, r^2= 1.0D+00
   Bfn.  Coefficient  Atom+Function         Bfn.  Coefficient  Atom+Function  
  ----- ------------  ---------------      ----- ------------  ---------------
     9      1.007169  1 O  pz                 6     -0.818602  1 O  pz         
     2     -0.582782  1 O  s                  3      0.561779  1 O  s          
    16      0.186380  2 H  s                 21      0.186380  3 H  s          

 Vector   11  Occ=0.000000D+00  E= 1.207144D+00  Symmetry=b2
              MO Center= -2.2D-19, -9.1D-18,  4.7D-02, r^2= 1.1D+00
   Bfn.  Coefficient  Atom+Function         Bfn.  Coefficient  Atom+Function  
  ----- ------------  ---------------      ----- ------------  ---------------
     8     -1.040631  1 O  py                 5      0.968678  1 O  py         

 Vector   12  Occ=0.000000D+00  E= 1.239753D+00  Symmetry=a1
              MO Center= -4.9D-16,  9.8D-18, -3.9D-01, r^2= 1.6D+00
   Bfn.  Coefficient  Atom+Function         Bfn.  Coefficient  Atom+Function  
  ----- ------------  ---------------      ----- ------------  ---------------
     3      3.074842  1 O  s                  2     -1.338656  1 O  s          
     9     -0.714386  1 O  pz                17     -0.628993  2 H  s          
    22     -0.628993  3 H  s                 16     -0.434466  2 H  s          
    21     -0.434466  3 H  s                  6      0.281405  1 O  pz         
    20     -0.199163  2 H  pz                25     -0.199163  3 H  pz         

 Vector   13  Occ=0.000000D+00  E= 1.257854D+00  Symmetry=b1
              MO Center= -3.5D-17, -7.9D-34,  9.9D-02, r^2= 1.7D+00
   Bfn.  Coefficient  Atom+Function         Bfn.  Coefficient  Atom+Function  
  ----- ------------  ---------------      ----- ------------  ---------------
     7      1.851798  1 O  px                17     -0.745500  2 H  s          
    22      0.745500  3 H  s                  4     -0.681625  1 O  px         
    16     -0.483513  2 H  s                 21      0.483513  3 H  s          
    18      0.337828  2 H  px                23      0.337828  3 H  px         

 Vector   14  Occ=0.000000D+00  E= 1.551907D+00  Symmetry=a2
              MO Center= -1.2D-34, -1.4D-18, -3.6D-01, r^2= 1.1D+00
   Bfn.  Coefficient  Atom+Function         Bfn.  Coefficient  Atom+Function  
  ----- ------------  ---------------      ----- ------------  ---------------
    19      0.660656  2 H  py                24     -0.660656  3 H  py         
    11      0.274014  1 O  dxy        

 Vector   15  Occ=0.000000D+00  E= 1.846907D+00  Symmetry=a1
              MO Center=  0.0D+00,  1.7D-19, -2.4D-01, r^2= 1.2D+00
[...]
     0.0000000000     0.0000000000     0.2538012197

      Symmetry information
      --------------------

 Group name             C2v       
 Group number             16
 Group order               4
 No. of unique centers     2

      Symmetry unique atoms

     1    2

                                 NWChem SCF Module
                                 -----------------



  ao basis        = "ao basis"
  functions       =    25
  atoms           =     3
  closed shells   =     5
  open shells     =     0
  charge          =   0.00
  wavefunction    = RHF 
  input vectors   = ./opt_water_nwchem.movecs
  output vectors  = ./opt_water_nwchem.movecs
  use symmetry    = T
  symmetry adapt  = T


 Summary of "ao basis" -> "ao basis" (cartesian)
 ------------------------------------------------------------------------------
       Tag                 Description            Shells   Functions and Types
 ---------------- ------------------------------  ------  ---------------------
 O                          Def2-SVP                 6       15   3s2p1d
 H                          Def2-SVP                 3        5   2s1p


      Symmetry analysis of basis
      --------------------------

        a1         12
        a2          2
        b1          7
        b2          4


 Forming initial guess at       3.4s


 Loading old vectors from job with title :




      Symmetry analysis of molecular orbitals - initial
      -------------------------------------------------

  Numbering of irreducible representations: 

     1 a1          2 a2          3 b1          4 b2      

  Orbital symmetries:

     1 a1          2 a1          3 b1          4 a1          5 b2      
     6 a1          7 b1          8 b1          9 a1         10 a1      
    11 b2         12 b1         13 a1         14 a2         15 a1      


 Starting SCF solution at       3.4s



 ----------------------------------------------
         Quadratically convergent ROHF

 Convergence threshold     :          1.000E-04
 Maximum no. of iterations :           30
 Final Fock-matrix accuracy:          1.000E-07
 ----------------------------------------------


 #quartets = 1.953D+03 #integrals = 1.805D+04 #direct =  0.0% #cached =100.0%


 Integral file          = ./opt_water_nwchem.aoints.0
 Record size in doubles =  65536        No. of integs per rec  =  43688
 Max. records in memory =      2        Max. records in file   = 181888
 No. of bits per label  =      8        No. of bits per value  =     64


              iter       energy          gnorm     gmax       time
             ----- ------------------- --------- --------- --------
                 1      -75.9624570898  2.70D-02  1.24D-02      2.7
                 2      -75.9625023236  3.70D-04  2.18D-04      2.7
                 3      -75.9625023448  8.34D-06  3.49D-06      2.7


       Final RHF  results 
       ------------------ 

         Total SCF energy =    -75.962502344815
      One-electron energy =   -123.156525765390
      Two-electron energy =     37.929796051475
 Nuclear repulsion energy =      9.264227369100

        Time for solution =      0.0s



       Symmetry analysis of molecular orbitals - final
       -----------------------------------------------

  Numbering of irreducible representations: 

     1 a1          2 a2          3 b1          4 b2      

  Orbital symmetries:

     1 a1          2 a1          3 b1          4 a1          5 b2      
     6 a1          7 b1          8 b1          9 a1         10 a1      
    11 b2         12 b1         13 a1         14 a2         15 a1      

             Final eigenvalues
             -----------------

              1      
    1  -20.5522
    2   -1.3217
    3   -0.7097
    4   -0.5668
    5   -0.4980
    6    0.1769
    7    0.2563
    8    0.8054
    9    0.8715
   10    1.1547
   11    1.2019
   12    1.2677
   13    1.2723
   14    1.5958
   15    1.6669

                       ROHF Final Molecular Orbital Analysis
                       -------------------------------------

 Vector    2  Occ=2.000000D+00  E=-1.321714D+00  Symmetry=a1
              MO Center=  4.3D-19,  6.7D-21, -5.1D-02, r^2= 5.1D-01
   Bfn.  Coefficient  Atom+Function         Bfn.  Coefficient  Atom+Function  
  ----- ------------  ---------------      ----- ------------  ---------------
     2      0.536237  1 O  s                  1      0.273168  1 O  s          
     3      0.267638  1 O  s                 16      0.195112  2 H  s          
    21      0.195112  3 H  s          

 Vector    3  Occ=2.000000D+00  E=-7.096993D-01  Symmetry=b1
              MO Center= -2.9D-17,  2.1D-28, -9.2D-02, r^2= 7.6D-01
   Bfn.  Coefficient  Atom+Function         Bfn.  Coefficient  Atom+Function  
  ----- ------------  ---------------      ----- ------------  ---------------
     4      0.491981  1 O  px                16      0.329290  2 H  s          
    21     -0.329290  3 H  s                  7      0.221376  1 O  px         

 Vector    4  Occ=2.000000D+00  E=-5.668162D-01  Symmetry=a1
              MO Center= -1.6D-17, -1.4D-21,  2.0D-01, r^2= 6.7D-01
   Bfn.  Coefficient  Atom+Function         Bfn.  Coefficient  Atom+Function  
  ----- ------------  ---------------      ----- ------------  ---------------
     6      0.549929  1 O  pz                 9      0.363319  1 O  pz         
     3      0.329761  1 O  s                 16     -0.200991  2 H  s          
    21     -0.200991  3 H  s                  2      0.198120  1 O  s          

 Vector    5  Occ=2.000000D+00  E=-4.980325D-01  Symmetry=b2
              MO Center=  1.6D-38, -1.5D-18,  1.1D-01, r^2= 5.9D-01
   Bfn.  Coefficient  Atom+Function         Bfn.  Coefficient  Atom+Function  
  ----- ------------  ---------------      ----- ------------  ---------------
     5      0.632603  1 O  py                 8      0.496518  1 O  py         

 Vector    6  Occ=0.000000D+00  E= 1.769305D-01  Symmetry=a1
              MO Center=  8.4D-17, -2.0D-18, -6.7D-01, r^2= 3.1D+00
   Bfn.  Coefficient  Atom+Function         Bfn.  Coefficient  Atom+Function  
  ----- ------------  ---------------      ----- ------------  ---------------
     3      1.146445  1 O  s                 17     -0.909364  2 H  s          
    22     -0.909364  3 H  s                  9     -0.362375  1 O  pz         
     6     -0.181882  1 O  pz         

 Vector    7  Occ=0.000000D+00  E= 2.563260D-01  Symmetry=b1
              MO Center=  6.5D-16, -1.2D-27, -6.0D-01, r^2= 3.6D+00
   Bfn.  Coefficient  Atom+Function         Bfn.  Coefficient  Atom+Function  
  ----- ------------  ---------------      ----- ------------  ---------------
    17      1.440141  2 H  s                 22     -1.440141  3 H  s          
     7     -0.659418  1 O  px                 4     -0.279883  1 O  px         

 Vector    8  Occ=0.000000D+00  E= 8.053708D-01  Symmetry=b1
              MO Center= -2.1D-17, -1.4D-27, -2.0D-01, r^2= 1.6D+00
   Bfn.  Coefficient  Atom+Function         Bfn.  Coefficient  Atom+Function  
  ----- ------------  ---------------      ----- ------------  ---------------
    16      0.973626  2 H  s                 21     -0.973626  3 H  s          
    17     -0.644166  2 H  s                 22      0.644166  3 H  s          
     7     -0.537508  1 O  px                 4     -0.272209  1 O  px         
    12     -0.189003  1 O  dxz        

 Vector    9  Occ=0.000000D+00  E= 8.715054D-01  Symmetry=a1
              MO Center= -4.0D-17,  2.3D-18, -4.7D-01, r^2= 1.5D+00
   Bfn.  Coefficient  Atom+Function         Bfn.  Coefficient  Atom+Function  
  ----- ------------  ---------------      ----- ------------  ---------------
    16      0.830850  2 H  s                 21      0.830850  3 H  s          
    17     -0.565304  2 H  s                 22     -0.565304  3 H  s          
     3      0.413186  1 O  s                  2     -0.402792  1 O  s          
     6      0.317888  1 O  pz                18      0.245712  2 H  px         
    23     -0.245712  3 H  px         

 Vector   10  Occ=0.000000D+00  E= 1.154663D+00  Symmetry=a1
              MO Center= -3.5D-18, -3.6D-19,  5.7D-01, r^2= 1.0D+00
   Bfn.  Coefficient  Atom+Function         Bfn.  Coefficient  Atom+Function  
  ----- ------------  ---------------      ----- ------------  ---------------
     3      0.998152  1 O  s                  9      0.901609  1 O  pz         
     2     -0.836316  1 O  s                  6     -0.700397  1 O  pz         
    16      0.197345  2 H  s                 21      0.197345  3 H  s          
    10     -0.158599  1 O  dxx        

 Vector   11  Occ=0.000000D+00  E= 1.201854D+00  Symmetry=b2
              MO Center= -8.6D-36, -9.7D-18,  1.3D-01, r^2= 1.1D+00
   Bfn.  Coefficient  Atom+Function         Bfn.  Coefficient  Atom+Function  
  ----- ------------  ---------------      ----- ------------  ---------------
     8     -1.038737  1 O  py                 5      0.966958  1 O  py         

 Vector   12  Occ=0.000000D+00  E= 1.267747D+00  Symmetry=b1
              MO Center= -3.5D-18, -7.8D-34,  1.4D-01, r^2= 1.7D+00
   Bfn.  Coefficient  Atom+Function         Bfn.  Coefficient  Atom+Function  
  ----- ------------  ---------------      ----- ------------  ---------------
     7      1.744974  1 O  px                17     -0.808830  2 H  s          
    22      0.808830  3 H  s                  4     -0.758659  1 O  px         
    16     -0.354547  2 H  s                 21      0.354547  3 H  s          
    18      0.266023  2 H  px                23      0.266023  3 H  px         
    20     -0.166821  2 H  pz                25      0.166821  3 H  pz         

 Vector   13  Occ=0.000000D+00  E= 1.272257D+00  Symmetry=a1
              MO Center= -4.7D-16,  8.9D-18, -4.2D-01, r^2= 1.3D+00
   Bfn.  Coefficient  Atom+Function         Bfn.  Coefficient  Atom+Function  
  ----- ------------  ---------------      ----- ------------  ---------------
     3      2.875638  1 O  s                  2     -1.136879  1 O  s          
     9     -1.017174  1 O  pz                16     -0.645509  2 H  s          
    21     -0.645509  3 H  s                 17     -0.514737  2 H  s          
    22     -0.514737  3 H  s                  6      0.361050  1 O  pz         
    20     -0.277692  2 H  pz                25     -0.277692  3 H  pz         

 Vector   14  Occ=0.000000D+00  E= 1.595767D+00  Symmetry=a2
              MO Center= -1.1D-42, -7.4D-24, -3.9D-01, r^2= 9.9D-01
   Bfn.  Coefficient  Atom+Function         Bfn.  Coefficient  Atom+Function  
  ----- ------------  ---------------      ----- ------------  ---------------
    19      0.669646  2 H  py                24     -0.669646  3 H  py         
    11      0.281732  1 O  dxy        

 Vector   15  Occ=0.000000D+00  E= 1.666865D+00  Symmetry=a1
              MO Center= -2.8D-17,  1.2D-18, -1.7D-01, r^2= 1.2D+00
   Bfn.  Coefficient  Atom+Function         Bfn.  Coefficient  Atom+Function  
  ----- ------------  ---------------      ----- ------------  ---------------
     3      1.440719  1 O  s                  9     -1.112386  1 O  pz         
    16     -0.676412  2 H  s                 21     -0.676412  3 H  s          
    20      0.507517  2 H  pz                25      0.507517  3 H  pz         
     2     -0.456762  1 O  s                 18      0.404517  2 H  px         
    23     -0.404517  3 H  px                15     -0.254014  1 O  dzz        


 center of mass
 --------------
 x =   0.00000000 y =   0.00000000 z =   0.12083096

 moments of inertia (a.u.)
 ------------------
           2.101959153199           0.000000000000           0.000000000000
           0.000000000000           6.227977240399           0.000000000000
           0.000000000000           0.000000000000           4.126018087200

  Mulliken analysis of the total density
  --------------------------------------

    Atom       Charge   Shell Charges
 -----------   ------   -------------------------------------------------------
    1 O    8     8.34   1.99  1.03  0.60  2.84  1.81  0.06
    2 H    1     0.83   0.69  0.07  0.07
    3 H    1     0.83   0.69  0.07  0.07

       Multipole analysis of the density wrt the origin
       ------------------------------------------------

     L   x y z        total         open         nuclear
     -   - - -        -----         ----         -------
     0   0 0 0     -0.000000      0.000000     10.000000

     1   1 0 0      0.000000      0.000000      0.000000
     1   0 1 0      0.000000      0.000000      0.000000
     1   0 0 1     -0.828106      0.000000      0.253801

     2   2 0 0     -3.054859      0.000000      4.093983
     2   1 1 0     -0.000000      0.000000      0.000000
     2   1 0 1      0.000000      0.000000      0.000000
     2   0 2 0     -5.214314      0.000000      0.000000
     2   0 1 1     -0.000000      0.000000      0.000000
     2   0 0 2     -4.468233      0.000000      1.885216


 Parallel integral file used       1 records with       0 large values

                              NWChem Gradients Module
                              -----------------------



  wavefunction    =   RHF     

  Using symmetry


                         RHF ENERGY GRADIENTS

    atom               coordinates                        gradient
                 x          y          z           x          y          z
   1 O       0.000000   0.000000   0.242104    0.000000   0.000000   0.004826
   2 H       1.430731   0.000000  -0.841516    0.005404   0.000000  -0.002413
   3 H      -1.430731   0.000000  -0.841516   -0.005404   0.000000  -0.002413

                 ----------------------------------------
                 |  Time  |  1-e(secs)   |  2-e(secs)   |
                 ----------------------------------------
                 |  CPU   |       0.00   |       0.04   |
                 ----------------------------------------
                 |  WALL  |       0.00   |       0.04   |
                 ----------------------------------------
 adding spring #                     1
   spring parameters (i,j,k,r0):                    1                    2   20.000000000000000        1.7951000000000008     
   spring length and energy    :   1.7947771737823184        2.0843353364628209E-006
   spring forces               :   1.0293812513816329E-002  -0.0000000000000000       -7.7964255173395983E-003
   spring deriv                :   1.2913048707297037E-002

  Step       Energy      Delta E   Gmax     Grms     Xrms     Xmax   Walltime
  ---- ---------------- -------- -------- -------- -------- -------- --------
@   20     -75.96250026  1.0D-11  0.01029  0.00475  0.00000  0.00000      3.5
                                                       ok       ok  


 ---------------------------------------------------------------
 Failed to converge in maximum number of steps or available time
 ---------------------------------------------------------------


  Step       Energy      Delta E   Gmax     Grms     Xrms     Xmax   Walltime
  ---- ---------------- -------- -------- -------- -------- -------- --------
@   20     -75.96250026  1.0D-11  0.01029  0.00475  0.00000  0.00000      3.5
                                                       ok       ok  



                         Geometry "geometry" -> "geometry"
                         ---------------------------------

 Output coordinates in angstroms (scale by  1.889725989 to convert to a.u.)

  No.       Tag          Charge          X              Y              Z
 ---- ---------------- ---------- -------------- -------------- --------------
    1 O                    8.0000     0.00000000     0.00000000     0.12811606
    2 H                    1.0000     0.75711032     0.00000000    -0.44531134
    3 H                    1.0000    -0.75711032     0.00000000    -0.44531134

      Atomic Mass 
      ----------- 

      O                 15.994910
      H                  1.007825


 Effective nuclear repulsion energy (a.u.)       9.2642273691

            Nuclear Dipole moment (a.u.) 
            ----------------------------
        X                 Y               Z
 ---------------- ---------------- ----------------
     0.0000000000     0.0000000000     0.2538012197

      Symmetry information
      --------------------

 Group name             C2v       
 Group number             16
 Group order               4
 No. of unique centers     2

      Symmetry unique atoms

     1    2

 ==============================================================================
                                internuclear distances
 ------------------------------------------------------------------------------
       center one      |      center two      | atomic units |  angstroms
 ------------------------------------------------------------------------------
    2 H                |   1 O                |     1.79478  |     0.94976
    3 H                |   1 O                |     1.79478  |     0.94976
 ------------------------------------------------------------------------------
                         number of included internuclear distances:          2
 ==============================================================================



 ==============================================================================
                                 internuclear angles
 ------------------------------------------------------------------------------
        center 1       |       center 2       |       center 3       |  degrees
 ------------------------------------------------------------------------------
    2 H                |   1 O                |   3 H                |   105.72
 ------------------------------------------------------------------------------
                            number of included internuclear angles:          1
 ==============================================================================



 ------------------------------------------------------------------------
 scf optimize failed                                                                                0
 ------------------------------------------------------------------------
 ------------------------------------------------------------------------
  current input line : 
    26: task scf optimize
 ------------------------------------------------------------------------
 ------------------------------------------------------------------------
 This type of error is most commonly associated with calculations not reaching convergence criteria
 ------------------------------------------------------------------------
 For more information see the NWChem manual at http://www.nwchem-sw.org/index.php/NWChem_Documentation


 For further details see manual section:                                                                                                                                                                                                                                                                
--------------------------------------------------------------------------
MPI_ABORT was invoked on rank 0 in communicator MPI COMMUNICATOR 3 DUP FROM 0 
with errorcode -1.

NOTE: invoking MPI_ABORT causes Open MPI to kill all MPI processes.
You may or may not see output from other processes, depending on
exactly when Open MPI kills them.
--------------------------------------------------------------------------
-------------------------------------------------------
Primary job  terminated normally, but 1 process returned
a non-zero exit code.. Per user-direction, the job has been aborted.
-------------------------------------------------------
--------------------------------------------------------------------------
mpirun detected that one or more processes exited with non-zero status, thus causing
the job to be terminated. The first process to do so was:

  Process name: [[24622,1],0]
  Exit code:    255
--------------------------------------------------------------------------
