      -----------------------------------------------------------      
     |                   =====================                   |     
     |                           x T B                           |     
     |                   =====================                   |     
     |                         S. Grimme                         |     
     |          Mulliken Center for Theoretical Chemistry        |     
     |                    University of Bonn                     |     
      -----------------------------------------------------------      

   * xtb version 6.2.3 (830e466) compiled by 'ehlert@majestix' on 2020-03-16

   xtb is free software: you can redistribute it and/or modify it under
   the terms of the GNU Lesser General Public License as published by
   the Free Software Foundation, either version 3 of the License, or
   (at your option) any later version.
   
   xtb is distributed in the hope that it will be useful,
   but WITHOUT ANY WARRANTY; without even the implied warranty of
   MERCHANTABILITY or FITNESS FOR A PARTICULAR PURPOSE.  See the
   GNU Lesser General Public License for more details.
   
   Cite this work as:
   * S. Grimme, C. Bannwarth, P. Shushkov, J. Chem. Theory Comput., 2017,
     13, 1989-2009. DOI: 10.1021/acs.jctc.7b00118
   * C. Bannwarth, S. Ehlert and S. Grimme., J. Chem. Theory Comput., 2019,
     15, 1652-1671. DOI: 10.1021/acs.jctc.8b01176
   * P. Pracht, E. Caldeweyher, S. Ehlert, S. Grimme, ChemRxiv, 2019, preprint.
     DOI: 10.26434/chemrxiv.8326202.v1
   
   for DFT-D4:
   * E. Caldeweyher, C. Bannwarth and S. Grimme, J. Chem. Phys., 2017,
     147, 034112. DOI: 10.1063/1.4993215
   * E. Caldeweyher, S. Ehlert, A. Hansen, H. Neugebauer, S. Spicher,
     C. Bannwarth and S. Grimme, J. Chem. Phys., 2019, 150, 154122.
     DOI: 10.1063/1.5090222
   
   for sTDA-xTB:
   * S. Grimme and C. Bannwarth, J. Chem. Phys., 2016, 145, 054103.
     DOI: 10.1063/1.4959605
   
   in the mass-spec context:
   * V. Asgeirsson, C. Bauer and S. Grimme, Chem. Sci., 2017, 8, 4879.
     DOI: 10.1039/c7sc00601b
   
   for metadynamics refer to:
   * S. Grimme, J. Chem. Theory Comput., 2019, 155, 2847-2862
     DOI: 10.1021/acs.jctc.9b00143
   
   with help from (in alphabetical order)
   C. Bannwarth, F. Bohle, G. Brandenburg, E. Caldeweyher, M. Checinski,
   S. Dohm, S. Ehlert, S. Ehrlich, F. März, H. Neugebauer, J. Pisarek,
   P. Pracht, P. Shushkov, and S. Spicher.
   
 * started run on 2020/05/24 at 23:58:50.275     

           -------------------------------------------------
          |                Calculation Setup                |
           -------------------------------------------------

          program call               : /home/tom/.local/bin/xtb SN2_PES_const_opt_xtb.xyz --chrg -1 --opt --input xcontrol_SN2_PES_const_opt
          coordinate file            : SN2_PES_const_opt_xtb.xyz
          omp threads                :                     4
          number of atoms            :                     6
          number of electrons        :                    22
          charge                     :                    -1
          spin                       :                   0.0
          first test random number   :      0.63115281595289

constraining bond 1 3 to    2.7340000 Å, actual value:    2.0006222 Å
constraining bond 2 3 to    1.9470000 Å, actual value:    1.7812168 Å

molecular fragmentation (1/2 indicates fragments):
122222
# atoms in fragment 1/2:     1     5
 fragment masses (1/2) :       19.00       50.49
CMA distance (Bohr)    :   6.117
constraining FC (au)   : 20.0000
########################################################################
[WARNING] Please study the warnings concerning your input carefully
-2- prog_main: XTBPATH is not set, using XTBHOME instead
-1- prog_main: XTBHOME is not set, using HOME instead
########################################################################
           ------------------------------------------------- 
          |                 G F N 2 - x T B                 |
          | Geometry, Frequencies, Noncovalent interactions |
          |            JCTC 2019 parametrisation            |
           ------------------------------------------------- 
             k(s)              :                1.8500
             k(p)              :                2.2300
             k(d)              :                2.2300
             k(f)              :                2.0000
             kEN (H0ij)        :               -2.0000
             D4 a1             :                0.5200
             D4 a2             :                5.0000
             D4 s6             :                1.0000
             D4 s8             :                2.7000
             D4 s9             :                5.0000
             alphaj            :                2.0000

  Z AO/shell   Hii/eV     exponent
  1     Wed Apr 25 08:07:45 CEST 2018   EN: 2.200 GM2: 0.406  GM3: 0.0800  RAES: 1.40
     1s    -10.707211    1.230000
  6     Wed Apr 25 08:07:45 CEST 2018   EN: 2.550 GM2: 0.538  GM3: 0.1500  RAES: 3.00
     2s    -13.970922    2.096432
     2p    -10.063292    1.800000
  9     Mon Apr 23 13:58:50 CEST 2018   EN: 3.980 GM2: 0.532  GM3: 0.1426  RAES: 2.40
     2s    -23.458179    2.416361
     2p    -15.746583    2.308399
 17     Mon Apr 23 14:09:22 CEST 2018   EN: 3.160 GM2: 0.249  GM3: 0.1495  RAES: 2.50
     3s    -29.278781    2.485265
     3p    -12.673758    2.199650
     3d     -0.240338    2.476089

           ------------------------------------------------- 
          |        Self-Consistent Charge Iterations        |
           ------------------------------------------------- 

          ...................................................
          :                      SETUP                      :
          :.................................................:
          :  # basis functions                  21          :
          :  # atomic orbitals                  20          :
          :  # shells                           10          :
          :  # electrons                        22          :
          :  max. iterations                   250          :
          :  Hamiltonian                  GFN2-xTB          :
          :  restarted?                      false          :
          :  GBSA solvation                  false          :
          :  PC potential                    false          :
          :  electronic temp.          300.0000000     K    :
          :  accuracy                    1.0000000          :
          :  -> integral cutoff          0.2500000E+02      :
          :  -> integral neglect         0.1000000E-07      :
          :  -> SCF convergence          0.1000000E-05 Eh   :
          :  -> wf. convergence          0.1000000E-03 e    :
          :  Broyden damping             0.4000000          :
          ...................................................

 iter      E             dE          RMSdq      gap      omega  full diag
   1    -13.1245730 -0.131246E+02  0.650E+00    6.67       0.0  T
   2    -13.1943266 -0.697537E-01  0.334E+00    4.70       1.0  T
   3    -13.1963585 -0.203185E-02  0.171E+00    4.47       1.0  T
   4    -13.1974950 -0.113650E-02  0.610E-01    4.21       1.0  T
   5    -13.1981687 -0.673736E-03  0.324E-01    4.45       1.0  T
   6    -13.1984269 -0.258126E-03  0.249E-01    4.19       1.0  T
   7    -13.1986304 -0.203570E-03  0.567E-02    4.23       1.0  T
   8    -13.1986324 -0.194145E-05  0.159E-02    4.20       2.6  T
   9    -13.1986334 -0.108231E-05  0.530E-03    4.21       7.7  T
  10    -13.1986336 -0.109316E-06  0.534E-04    4.22      76.4  T
  11    -13.1986336 -0.763238E-09  0.228E-04    4.22     178.7  T

   *** convergence criteria satisfied after 11 iterations ***

         #    Occupation            Energy/Eh            Energy/eV
      -------------------------------------------------------------
         1        2.0000           -0.8911459             -24.2493
       ...           ...                  ...                  ...
         5        2.0000           -0.3294216              -8.9640
         6        2.0000           -0.3057404              -8.3196
         7        2.0000           -0.2487870              -6.7698
         8        2.0000           -0.2487784              -6.7696
         9        2.0000           -0.1247456              -3.3945
        10        2.0000           -0.1247388              -3.3943
        11        2.0000           -0.1243559              -3.3839 (HOMO)
        12                          0.0306068               0.8329 (LUMO)
        13                          0.2008640               5.4658
        14                          0.2008663               5.4659
        15                          0.2048454               5.5741
        16                          0.2048604               5.5745
       ...                                ...                  ...
        20                          0.4275356              11.6338
      -------------------------------------------------------------
                  HL-Gap            0.1549627 Eh            4.2167 eV
             Fermi-level           -0.0468746 Eh           -1.2755 eV

 SCC (total)                   0 d,  0 h,  0 min,  0.002 sec
 SCC setup                      ...        0 min,  0.000 sec (  3.598%)
 Dispersion                     ...        0 min,  0.000 sec (  0.820%)
 integral evaluation            ...        0 min,  0.000 sec ( 16.791%)
 zeroth order Hamiltonian       ...        0 min,  0.000 sec (  0.979%)
 iterations                     ...        0 min,  0.001 sec ( 55.905%)
 molecular gradient             ...        0 min,  0.000 sec ( 17.562%)
 printout                       ...        0 min,  0.000 sec (  3.329%)

         :::::::::::::::::::::::::::::::::::::::::::::::::::::
         ::                     SUMMARY                     ::
         :::::::::::::::::::::::::::::::::::::::::::::::::::::
         :: total energy              27.237454238714 Eh    ::
         :: gradient norm             71.222562271439 Eh/a0 ::
         :: HOMO-LUMO gap              4.216749724023 eV    ::
         ::.................................................::
         :: SCC energy               -13.198633554162 Eh    ::
         :: -> isotropic ES            0.219626563097 Eh    ::
         :: -> anisotropic ES         -0.007967004521 Eh    ::
         :: -> anisotropic XC         -0.010562027684 Eh    ::
         :: -> dispersion             -0.002201510931 Eh    ::
         :: repulsion energy           0.059700222266 Eh    ::
         :: add. restraining          40.376387584946 Eh    ::
         :::::::::::::::::::::::::::::::::::::::::::::::::::::

      ----------------------------------------------------------- 
     |                   =====================                   |
     |                        A N C O P T                        |
     |                   =====================                   |
     |               Approximate Normal Coordinate               |
     |                Rational Function Optimizer                |
      ----------------------------------------------------------- 

          ...................................................
          :                      SETUP                      :
          :.................................................:
          :   optimization level            normal          :
          :   max. optcycles                   200          :
          :   ANC micro-cycles                  20          :
          :   degrees of freedom                12          :
          :.................................................:
          :   RF solver                   davidson          :
          :   write xtbopt.log                true          :
          :   linear?                        false          :
          :   energy convergence         0.5000000E-05 Eh   :
          :   grad. convergence          0.1000000E-02 Eh/α :
          :   maximium RF displ.         1.0000000          :
          :   Hlow (freq-cutoff)         0.1000000E-01      :
          :   Hmax (freq-cutoff)         5.0000000          :
          :   S6 in model hess.         20.0000000          :
          ...................................................

generating ANC from model Hessian ...
Using Lindh-Hessian (1995)
 Shifting diagonal of input Hessian by    27.1490367279186     
 Lowest  eigenvalues of input Hessian
    0.010000    0.021743   26.094492   26.094764   -0.000000   -0.000000
   -0.000000    0.000000    0.000000    0.000000   27.277824   27.277831
   27.277939   27.609451   27.837320   27.837440   67.406406  148.074155
 Highest eigenvalues
   27.277939   27.609451   27.837320   27.837440   67.406406  148.074155
 

........................................................................
.............................. CYCLE    1 ..............................
........................................................................
   1    -13.1986336 -0.131986E+02  0.163E-05    4.22       0.0  T
   2    -13.1986336 -0.532907E-12  0.106E-05    4.22    3836.5  T
   3    -13.1986336 -0.103029E-12  0.860E-06    4.22    4746.1  T
     SCC iter.                  ...        0 min,  0.000 sec
     gradient                   ...        0 min,  0.000 sec
 * total energy  :    27.2374542 Eh     change       -0.1453778E-07 Eh
   gradient norm :    71.2225567 Eh/α   predicted     0.0000000E+00 (-100.00%)
   displ. norm   :     0.9655147 α      lambda       -0.6876643E+02
   maximum displ.:     0.7094818 α      in ANC's #3, #12, #6, ...

........................................................................
.............................. CYCLE    2 ..............................
........................................................................
   1    -13.1490667 -0.131491E+02  0.141E+00    4.81       0.0  T
   2    -13.1517196 -0.265283E-02  0.815E-01    3.59       1.0  T
   3    -13.1524733 -0.753735E-03  0.406E-01    2.57       1.0  T
   4    -13.1525088 -0.355049E-04  0.952E-02    2.35       1.0  T
   5    -13.1525188 -0.999284E-05  0.680E-02    2.32       1.0  T
   6    -13.1525321 -0.133560E-04  0.291E-02    2.32       1.4  T
   7    -13.1525345 -0.232701E-05  0.928E-03    2.32       4.4  T
   8    -13.1525346 -0.788458E-07  0.899E-04    2.31      45.4  T
   9    -13.1525346 -0.198400E-08  0.322E-04    2.31     126.8  T
     SCC iter.                  ...        0 min,  0.001 sec
     gradient                   ...        0 min,  0.000 sec
 * total energy  :    -2.5664213 Eh     change       -0.2980388E+02 Eh
   gradient norm :    39.7435363 Eh/α   predicted    -0.6643588E+02 ( 122.91%)
   displ. norm   :     0.8834556 α      lambda       -0.3100917E+02
   maximum displ.:     0.7759009 α      in ANC's #12, #3, #6, ...

........................................................................
.............................. CYCLE    3 ..............................
........................................................................
   1    -12.0863182 -0.120863E+02  0.101E+01    0.02       0.0  T
   2    -12.8870168 -0.800699E+00  0.740E+00    5.43       1.0  T
   3    -13.1271217 -0.240105E+00  0.360E+00    3.72       1.0  T
   4    -13.1366860 -0.956436E-02  0.278E+00    3.74       1.0  T
   5    -13.1631046 -0.264186E-01  0.120E+00    0.53       1.0  T
   6    -13.0678354  0.952692E-01  0.336E+00    0.30       1.0  T
   7    -13.0901339 -0.222986E-01  0.299E+00    0.33       1.0  T
   8    -13.1493525 -0.592185E-01  0.205E+00    2.19       1.0  T
   9    -13.1575775 -0.822503E-02  0.142E+00    1.39       1.0  T
  10    -12.6402669  0.517311E+00  0.738E+00    0.15       1.0  T
  11    -13.1647236 -0.524457E+00  0.812E-01    0.54       1.0  T
  12    -13.1564601  0.826343E-02  0.138E+00    1.55       1.0  T
  13    -13.1577288 -0.126868E-02  0.128E+00    1.44       1.0  T
  14    -13.1607704 -0.304160E-02  0.107E+00    1.22       1.0  T
  15    -13.1603670  0.403419E-03  0.110E+00    1.25       1.0  T
  16    -13.1611393 -0.772316E-03  0.105E+00    1.19       1.0  T
  17    -13.1623378 -0.119851E-02  0.962E-01    1.12       1.0  T
  18    -13.1631291 -0.791324E-03  0.898E-01    1.07       1.0  T
  19    -13.1655333 -0.240412E-02  0.679E-01    0.94       1.0  T
  20    -13.1679307 -0.239741E-02  0.375E-01    0.80       1.0  T
  21    -13.1687380 -0.807347E-03  0.197E-01    0.74       1.0  T
  22    -13.1690246 -0.286582E-03  0.619E-02    0.70       1.0  T
  23    -13.1690419 -0.172726E-04  0.435E-02    0.70       1.0  T
  24    -13.1690508 -0.890960E-05  0.320E-02    0.68       1.3  T
  25    -13.1690540 -0.317240E-05  0.236E-02    0.69       1.7  T
  26    -13.1690547 -0.736269E-06  0.220E-02    0.68       1.9  T
  27    -13.1690581 -0.336932E-05  0.725E-03    0.69       5.6  T
  28    -13.1690583 -0.213571E-06  0.516E-03    0.68       7.9  T
  29    -13.1690585 -0.193554E-06  0.145E-03    0.68      28.2  T
     SCC iter.                  ...        0 min,  0.002 sec
     gradient                   ...        0 min,  0.000 sec
 * total energy  :   -10.8152800 Eh     change       -0.8248859E+01 Eh
   gradient norm :    19.7073712 Eh/α   predicted    -0.2760582E+02 ( 234.66%)
   displ. norm   :     0.2424556 α      lambda       -0.4363218E+01
   maximum displ.:     0.1896960 α      in ANC's #12, #3, #6, ...

........................................................................
.............................. CYCLE    4 ..............................
........................................................................
   1    -13.1607863 -0.131608E+02  0.135E+00    2.16       0.0  T
   2    -13.1666377 -0.585140E-02  0.658E-01    0.88       1.0  T
   3    -13.1672108 -0.573054E-03  0.345E-01    0.90       1.0  T
   4    -13.1671792  0.316057E-04  0.273E-01    0.77       1.0  T
   5    -13.1665614  0.617760E-03  0.347E-01    1.05       1.0  T
   6    -13.1672838 -0.722434E-03  0.180E-01    0.78       1.0  T
   7    -13.1674270 -0.143135E-03  0.712E-02    0.87       1.0  T
   8    -13.1674547 -0.277495E-04  0.376E-02    0.85       1.1  T
   9    -13.1674619 -0.715393E-05  0.201E-02    0.82       2.0  T
  10    -13.1674646 -0.269739E-05  0.649E-03    0.83       6.3  T
  11    -13.1674649 -0.313662E-06  0.288E-05    0.83    1419.8  T
  12    -13.1674649 -0.346390E-12  0.260E-05    0.83    1571.6  T
     SCC iter.                  ...        0 min,  0.001 sec
     gradient                   ...        0 min,  0.000 sec
 * total energy  :   -13.0999974 Eh     change       -0.2284717E+01 Eh
   gradient norm :     1.6525207 Eh/α   predicted    -0.2309854E+01 (   1.10%)
   displ. norm   :     0.0632373 α      lambda       -0.9948163E-01
   maximum displ.:     0.0588497 α      in ANC's #12, #2, #3, ...

........................................................................
.............................. CYCLE    5 ..............................
........................................................................
   1    -13.1716647 -0.131717E+02  0.167E-01    1.01       0.0  T
   2    -13.1716080  0.567192E-04  0.194E-01    0.84       1.0  T
   3    -13.1718561 -0.248109E-03  0.445E-02    0.92       1.0  T
   4    -13.1718544  0.162482E-05  0.319E-02    0.91       1.3  T
   5    -13.1718581 -0.368665E-05  0.138E-02    0.91       3.0  T
   6    -13.1718582 -0.281806E-07  0.116E-02    0.91       3.5  T
   7    -13.1718579  0.254827E-06  0.110E-02    0.92       3.7  T
   8    -13.1718588 -0.887104E-06  0.601E-04    0.91      67.9  T
   9    -13.1718588 -0.211218E-08  0.914E-05    0.91     446.6  T
     SCC iter.                  ...        0 min,  0.001 sec
     gradient                   ...        0 min,  0.000 sec
 * total energy  :   -13.1193268 Eh     change       -0.1932947E-01 Eh
   gradient norm :     1.3117862 Eh/α   predicted    -0.4993974E-01 ( 158.36%)
   displ. norm   :     0.0350050 α      lambda       -0.2548037E-01
   maximum displ.:     0.0264619 α      in ANC's #2, #12, #3, ...

........................................................................
.............................. CYCLE    6 ..............................
........................................................................
   1    -13.1717581 -0.131718E+02  0.769E-02    0.87       0.0  T
   2    -13.1717570  0.109438E-05  0.522E-02    0.90       1.0  T
   3    -13.1717573 -0.318003E-06  0.393E-02    0.87       1.0  T
   4    -13.1717639 -0.664845E-05  0.756E-03    0.89       5.4  T
   5    -13.1717640 -0.940078E-07  0.343E-03    0.88      11.9  T
   6    -13.1717640 -0.103016E-07  0.237E-03    0.88      17.2  T
     SCC iter.                  ...        0 min,  0.000 sec
     gradient                   ...        0 min,  0.000 sec
 * total energy  :   -13.1321831 Eh     change       -0.1285625E-01 Eh
   gradient norm :     0.0583411 Eh/α   predicted    -0.1275579E-01 (  -0.78%)
   displ. norm   :     0.3664256 α      lambda       -0.4207542E-02
   maximum displ.:     0.3661620 α      in ANC's #2, #6, #7, ...

........................................................................
.............................. CYCLE    7 ..............................
........................................................................
   1    -13.1665120 -0.131665E+02  0.101E+00    0.76       0.0  T
   2    -13.1666229 -0.110824E-03  0.601E-01    0.91       1.0  T
   3    -13.1638060  0.281690E-02  0.635E-01    0.64       1.0  T
   4    -13.1667891 -0.298313E-02  0.133E-01    0.89       1.0  T
   5    -13.1668748 -0.856852E-04  0.310E-02    0.84       1.3  T
   6    -13.1668748 -0.284734E-07  0.121E-02    0.83       3.4  T
   7    -13.1668739  0.918546E-06  0.167E-02    0.84       2.4  T
   8    -13.1668756 -0.173360E-05  0.477E-03    0.84       8.6  T
   9    -13.1668757 -0.542866E-07  0.235E-03    0.83      17.4  T
     SCC iter.                  ...        0 min,  0.001 sec
     gradient                   ...        0 min,  0.000 sec
 * total energy  :   -13.1002357 Eh     change        0.3194740E-01 Eh
   gradient norm :     1.1662270 Eh/α   predicted    -0.2386163E-02 (-107.47%)
   displ. norm   :     0.3059334 α      lambda       -0.9481770E-01
   maximum displ.:     0.3057738 α      in ANC's #2, #1, #12, ...

........................................................................
.............................. CYCLE    8 ..............................
........................................................................
   1    -13.1736196 -0.131736E+02  0.836E-01    0.98       0.0  T
   2    -13.1736481 -0.284877E-04  0.524E-01    0.81       1.0  T
   3    -13.1730669  0.581186E-03  0.397E-01    1.08       1.0  T
   4    -13.1739313 -0.864403E-03  0.745E-02    0.91       1.0  T
   5    -13.1739409 -0.960716E-05  0.344E-02    0.88       1.2  T
   6    -13.1739433 -0.241976E-05  0.137E-02    0.88       3.0  T
   7    -13.1739437 -0.390922E-06  0.892E-03    0.89       4.6  T
   8    -13.1739442 -0.477244E-06  0.433E-03    0.89       9.4  T
   9    -13.1739443 -0.955110E-07  0.529E-04    0.89      77.1  T
     SCC iter.                  ...        0 min,  0.001 sec
     gradient                   ...        0 min,  0.000 sec
 * total energy  :   -13.1328379 Eh     change       -0.3260216E-01 Eh
   gradient norm :     0.1521723 Eh/α   predicted    -0.5184628E-01 (  59.03%)
   displ. norm   :     0.2015959 α      lambda       -0.1709870E-02
   maximum displ.:     0.1996752 α      in ANC's #1, #2, #6, ...

........................................................................
.............................. CYCLE    9 ..............................
........................................................................
   1    -13.1735244 -0.131735E+02  0.581E-01    0.83       0.0  T
   2    -13.1735624 -0.379727E-04  0.351E-01    0.91       1.0  T
   3    -13.1730205  0.541874E-03  0.291E-01    0.76       1.0  T
   4    -13.1736151 -0.594608E-03  0.547E-02    0.88       1.0  T
   5    -13.1736232 -0.811154E-05  0.116E-02    0.87       3.5  T
   6    -13.1736233 -0.124950E-06  0.396E-03    0.87      10.3  T
   7    -13.1736233  0.763890E-07  0.451E-03    0.87       9.1  T
     SCC iter.                  ...        0 min,  0.000 sec
     gradient                   ...        0 min,  0.000 sec
 * total energy  :   -13.1276089 Eh     change        0.5228918E-02 Eh
   gradient norm :     0.3632293 Eh/α   predicted    -0.8896798E-03 (-117.01%)
   displ. norm   :     0.2403271 α      lambda       -0.1792924E-01
   maximum displ.:     0.2370724 α      in ANC's #1, #2, #6, ...

........................................................................
.............................. CYCLE   10 ..............................
........................................................................
   1    -13.1793905 -0.131794E+02  0.685E-01    0.87       0.0  T
   2    -13.1794545 -0.639909E-04  0.410E-01    0.87       1.0  T
   3    -13.1794721 -0.175914E-04  0.651E-02    0.88       1.0  T
   4    -13.1794668  0.529032E-05  0.322E-02    0.86       1.3  T
   5    -13.1794738 -0.702946E-05  0.723E-03    0.88       5.6  T
   6    -13.1794741 -0.237043E-06  0.370E-03    0.87      11.0  T
   7    -13.1794741 -0.189185E-07  0.170E-03    0.87      24.0  T
     SCC iter.                  ...        0 min,  0.000 sec
     gradient                   ...        0 min,  0.000 sec
 * total energy  :   -13.1336042 Eh     change       -0.5995217E-02 Eh
   gradient norm :     0.2916386 Eh/α   predicted    -0.9482465E-02 (  58.17%)
   displ. norm   :     0.0841837 α      lambda       -0.4883710E-02
   maximum displ.:     0.0615507 α      in ANC's #1, #2, #12, ...

........................................................................
.............................. CYCLE   11 ..............................
........................................................................
   1    -13.1789180 -0.131789E+02  0.248E-01    0.93       0.0  T
   2    -13.1789095  0.846160E-05  0.169E-01    0.85       1.0  T
   3    -13.1789079  0.162530E-05  0.129E-01    0.94       1.0  T
   4    -13.1789767 -0.688507E-04  0.189E-02    0.89       2.2  T
   5    -13.1789768 -0.894849E-07  0.906E-03    0.89       4.5  T
   6    -13.1789769 -0.984726E-07  0.402E-03    0.89      10.2  T
   7    -13.1789770 -0.408696E-07  0.165E-03    0.89      24.7  T
     SCC iter.                  ...        0 min,  0.000 sec
     gradient                   ...        0 min,  0.000 sec
 * total energy  :   -13.1341977 Eh     change       -0.5935169E-03 Eh
   gradient norm :     0.2186287 Eh/α   predicted    -0.2459158E-02 ( 314.34%)
   displ. norm   :     0.0350139 α      lambda       -0.2056103E-02
   maximum displ.:     0.0238365 α      in ANC's #2, #6, #7, ...

........................................................................
.............................. CYCLE   12 ..............................
........................................................................
   1    -13.1822432 -0.131822E+02  0.894E-02    0.86       0.0  T
   2    -13.1822396  0.359058E-05  0.628E-02    0.91       1.0  T
   3    -13.1822517 -0.121481E-04  0.453E-02    0.87       1.0  T
   4    -13.1822575 -0.576803E-05  0.629E-03    0.88       6.5  T
   5    -13.1822575 -0.226390E-07  0.253E-03    0.88      16.1  T
   6    -13.1822575 -0.225045E-08  0.498E-04    0.88      82.1  T
     SCC iter.                  ...        0 min,  0.000 sec
     gradient                   ...        0 min,  0.000 sec
 * total energy  :   -13.1357140 Eh     change       -0.1516301E-02 Eh
   gradient norm :     0.0443231 Eh/α   predicted    -0.1029314E-02 ( -32.12%)
   displ. norm   :     0.0490296 α      lambda       -0.1641081E-02
   maximum displ.:     0.0375075 α      in ANC's #6, #7, #2, ...

........................................................................
.............................. CYCLE   13 ..............................
........................................................................
   1    -13.1881450 -0.131881E+02  0.942E-02    0.86       0.0  T
   2    -13.1881416  0.341514E-05  0.601E-02    0.90       1.0  T
   3    -13.1881487 -0.711045E-05  0.536E-02    0.86       1.0  T
   4    -13.1881577 -0.901361E-05  0.651E-03    0.88       6.3  T
   5    -13.1881577 -0.361790E-07  0.239E-03    0.88      17.1  T
   6    -13.1881577 -0.465104E-08  0.686E-04    0.88      59.5  T
     SCC iter.                  ...        0 min,  0.000 sec
     gradient                   ...        0 min,  0.000 sec
 * total energy  :   -13.1368005 Eh     change       -0.1086479E-02 Eh
   gradient norm :     0.1140718 Eh/α   predicted    -0.8225249E-03 ( -24.29%)
   displ. norm   :     0.0424957 α      lambda       -0.9992463E-03
   maximum displ.:     0.0351163 α      in ANC's #6, #7, #9, ...

........................................................................
.............................. CYCLE   14 ..............................
........................................................................
   1    -13.1936579 -0.131937E+02  0.596E-02    0.87       0.0  T
   2    -13.1936574  0.445697E-06  0.335E-02    0.89       1.2  T
   3    -13.1936548  0.264781E-05  0.394E-02    0.87       1.0  T
   4    -13.1936605 -0.573915E-05  0.462E-03    0.88       8.8  T
   5    -13.1936605 -0.204895E-07  0.243E-03    0.88      16.8  T
     SCC iter.                  ...        0 min,  0.000 sec
     gradient                   ...        0 min,  0.000 sec
 * total energy  :   -13.1375259 Eh     change       -0.7254631E-03 Eh
   gradient norm :     0.1044249 Eh/α   predicted    -0.5005303E-03 ( -31.01%)
   displ. norm   :     0.0365437 α      lambda       -0.6380733E-03
   maximum displ.:     0.0262162 α      in ANC's #6, #7, #2, ...

........................................................................
.............................. CYCLE   15 ..............................
........................................................................
   1    -13.1977817 -0.131978E+02  0.559E-02    0.88       0.0  T
   2    -13.1977822 -0.445749E-06  0.348E-02    0.88       1.2  T
   3    -13.1977822 -0.441426E-08  0.899E-03    0.88       4.5  T
   4    -13.1977822 -0.350261E-07  0.547E-03    0.88       7.5  T
   5    -13.1977824 -0.159161E-06  0.348E-03    0.88      11.7  T
     SCC iter.                  ...        0 min,  0.000 sec
     gradient                   ...        0 min,  0.000 sec
 * total energy  :   -13.1378892 Eh     change       -0.3632605E-03 Eh
   gradient norm :     0.0287033 Eh/α   predicted    -0.3194594E-03 ( -12.06%)
   displ. norm   :     0.0066192 α      lambda       -0.8259127E-04
   maximum displ.:     0.0047860 α      in ANC's #7, #2, #9, ...

........................................................................
.............................. CYCLE   16 ..............................
........................................................................
   1    -13.1979542 -0.131980E+02  0.142E-02    0.88       0.0  T
   2    -13.1979542  0.455530E-07  0.118E-02    0.88       3.5  T
   3    -13.1979544 -0.265333E-06  0.676E-03    0.88       6.0  T
   4    -13.1979545 -0.815117E-07  0.276E-03    0.88      14.8  T
   5    -13.1979545 -0.143342E-07  0.190E-03    0.88      21.5  T
     SCC iter.                  ...        0 min,  0.000 sec
     gradient                   ...        0 min,  0.000 sec
 * total energy  :   -13.1379589 Eh     change       -0.6971239E-04 Eh
   gradient norm :     0.0164358 Eh/α   predicted    -0.4129775E-04 ( -40.76%)
   displ. norm   :     0.0214458 α      lambda       -0.2656022E-03
   maximum displ.:     0.0180074 α      in ANC's #7, #2, #9, ...

........................................................................
.............................. CYCLE   17 ..............................
........................................................................
   1    -13.1979377 -0.131979E+02  0.404E-02    0.89       0.0  T
   2    -13.1979371  0.541009E-06  0.359E-02    0.87       1.1  T
   3    -13.1979410 -0.388174E-05  0.181E-02    0.88       2.3  T
   4    -13.1979412 -0.197851E-06  0.779E-03    0.88       5.2  T
   5    -13.1979414 -0.172626E-06  0.388E-03    0.88      10.5  T
   6    -13.1979414 -0.352566E-07  0.218E-03    0.88      18.8  T
   7    -13.1979414 -0.154021E-07  0.278E-04    0.88     146.6  T
     SCC iter.                  ...        0 min,  0.000 sec
     gradient                   ...        0 min,  0.000 sec
 * total energy  :   -13.1381577 Eh     change       -0.1987959E-03 Eh
   gradient norm :     0.0625913 Eh/α   predicted    -0.1328625E-03 ( -33.17%)
   displ. norm   :     0.0347116 α      lambda       -0.3446222E-03
   maximum displ.:     0.0308626 α      in ANC's #7, #9, #6, ...

........................................................................
.............................. CYCLE   18 ..............................
........................................................................
   1    -13.1975910 -0.131976E+02  0.581E-02    0.89       0.0  T
   2    -13.1975911 -0.180988E-06  0.493E-02    0.87       1.0  T
   3    -13.1975972 -0.609872E-05  0.256E-02    0.89       1.6  T
   4    -13.1975976 -0.338558E-06  0.138E-02    0.88       3.0  T
   5    -13.1975982 -0.604676E-06  0.492E-03    0.88       8.3  T
   6    -13.1975983 -0.729183E-07  0.203E-03    0.88      20.1  T
     SCC iter.                  ...        0 min,  0.000 sec
     gradient                   ...        0 min,  0.000 sec
 * total energy  :   -13.1384227 Eh     change       -0.2650220E-03 Eh
   gradient norm :     0.1020480 Eh/α   predicted    -0.1725191E-03 ( -34.90%)
   displ. norm   :     0.0549871 α      lambda       -0.4835813E-03
   maximum displ.:     0.0496010 α      in ANC's #7, #9, #6, ...

........................................................................
.............................. CYCLE   19 ..............................
........................................................................
   1    -13.1966636 -0.131967E+02  0.876E-02    0.89       0.0  T
   2    -13.1966676 -0.397809E-05  0.673E-02    0.87       1.0  T
   3    -13.1966735 -0.595270E-05  0.381E-02    0.89       1.1  T
   4    -13.1966748 -0.126394E-05  0.247E-02    0.87       1.6  T
   5    -13.1966769 -0.211217E-05  0.772E-03    0.88       5.3  T
   6    -13.1966771 -0.202354E-06  0.203E-03    0.88      20.2  T
   7    -13.1966771 -0.991160E-08  0.549E-04    0.88      74.3  T
     SCC iter.                  ...        0 min,  0.000 sec
     gradient                   ...        0 min,  0.000 sec
 * total energy  :   -13.1387605 Eh     change       -0.3378031E-03 Eh
   gradient norm :     0.1061035 Eh/α   predicted    -0.2425209E-03 ( -28.21%)
   displ. norm   :     0.0378614 α      lambda       -0.2947987E-03
   maximum displ.:     0.0337587 α      in ANC's #7, #9, #8, ...

........................................................................
.............................. CYCLE   20 ..............................
........................................................................
   1    -13.1958596 -0.131959E+02  0.611E-02    0.87       0.0  T
   2    -13.1958632 -0.357492E-05  0.386E-02    0.87       1.1  T
   3    -13.1958627  0.432494E-06  0.226E-02    0.88       1.8  T
   4    -13.1958625  0.223509E-06  0.188E-02    0.87       2.2  T
   5    -13.1958642 -0.165021E-05  0.448E-03    0.88       9.1  T
   6    -13.1958642 -0.460883E-07  0.258E-03    0.88      15.8  T
     SCC iter.                  ...        0 min,  0.000 sec
     gradient                   ...        0 min,  0.000 sec
 * total energy  :   -13.1389532 Eh     change       -0.1927385E-03 Eh
   gradient norm :     0.0577360 Eh/α   predicted    -0.1476119E-03 ( -23.41%)
   displ. norm   :     0.0093189 α      lambda       -0.8420191E-04
   maximum displ.:     0.0066453 α      in ANC's #2, #7, #9, ...
 * RMSD in coord.:     0.5377244 α      energy gain  -0.4037641E+02 Eh

generating ANC from model Hessian ...
Using Lindh-Hessian (1995)
 Shifting diagonal of input Hessian by   1.457052216261536E-002
 Lowest  eigenvalues of input Hessian
    0.010000    0.010001   -0.000000    0.000000    0.000000    0.000000
    0.000000    0.000000    0.045698    0.045800    0.100581    0.150271
    0.150530    0.482539    1.160053    1.162322   40.127004  120.518729
 Highest eigenvalues
    0.150530    0.482539    1.160053    1.162322   40.127004  120.518729
 

........................................................................
.............................. CYCLE   21 ..............................
........................................................................
   1    -13.1957784 -0.131958E+02  0.221E-02    0.87       0.0  T
   2    -13.1957786 -0.175865E-06  0.131E-02    0.88       3.1  T
   3    -13.1957783  0.352285E-06  0.121E-02    0.87       3.4  T
   4    -13.1957789 -0.627884E-06  0.269E-03    0.87      15.2  T
   5    -13.1957789 -0.475998E-08  0.135E-03    0.87      30.3  T
   6    -13.1957789 -0.249779E-08  0.798E-04    0.87      51.2  T
   7    -13.1957789 -0.220731E-08  0.127E-04    0.87     321.1  T
     SCC iter.                  ...        0 min,  0.000 sec
     gradient                   ...        0 min,  0.000 sec
 * total energy  :   -13.1390013 Eh     change       -0.4807960E-04 Eh
   gradient norm :     0.0102102 Eh/α   predicted     0.0000000E+00 (-100.00%)
   displ. norm   :     0.0069064 α      lambda       -0.2376551E-04
   maximum displ.:     0.0044069 α      in ANC's #5, #1, #4, ...

........................................................................
.............................. CYCLE   22 ..............................
........................................................................
   1    -13.1958623 -0.131959E+02  0.233E-02    0.86       0.0  T
   2    -13.1958608  0.151782E-05  0.276E-02    0.88       1.5  T
   3    -13.1958655 -0.469737E-05  0.706E-03    0.87       5.8  T
   4    -13.1958655 -0.125373E-07  0.222E-03    0.87      18.4  T
   5    -13.1958655 -0.318529E-08  0.173E-03    0.87      23.6  T
     SCC iter.                  ...        0 min,  0.000 sec
     gradient                   ...        0 min,  0.000 sec
 * total energy  :   -13.1389211 Eh     change        0.8026488E-04 Eh
   gradient norm :     0.1041631 Eh/α   predicted    -0.1188244E-04 (-114.80%)
   displ. norm   :     0.0026492 α      lambda       -0.1731307E-03
   maximum displ.:     0.0017188 α      in ANC's #5, #11, #12, ...

........................................................................
.............................. CYCLE   23 ..............................
........................................................................
   1    -13.1958675 -0.131959E+02  0.228E-02    0.88       0.0  T
   2    -13.1958664  0.110649E-05  0.246E-02    0.86       1.7  T
   3    -13.1958708 -0.447808E-05  0.376E-03    0.87      10.9  T
   4    -13.1958709 -0.264005E-07  0.188E-03    0.87      21.7  T
     SCC iter.                  ...        0 min,  0.000 sec
     gradient                   ...        0 min,  0.000 sec
 * total energy  :   -13.1389413 Eh     change       -0.2026971E-04 Eh
   gradient norm :     0.1109906 Eh/α   predicted    -0.8656552E-04 ( 327.07%)
   displ. norm   :     0.0203808 α      lambda       -0.8137375E-03
   maximum displ.:     0.0135767 α      in ANC's #12, #1, #5, ...

........................................................................
.............................. CYCLE   24 ..............................
........................................................................
   1    -13.1960847 -0.131961E+02  0.527E-02    0.91       0.0  T
   2    -13.1960791  0.563031E-05  0.595E-02    0.87       1.0  T
   3    -13.1960991 -0.199734E-04  0.181E-02    0.89       2.3  T
   4    -13.1960991 -0.488634E-07  0.687E-03    0.89       5.9  T
   5    -13.1960992 -0.124792E-06  0.338E-03    0.89      12.1  T
   6    -13.1960993 -0.324214E-07  0.199E-03    0.89      20.5  T
     SCC iter.                  ...        0 min,  0.000 sec
     gradient                   ...        0 min,  0.000 sec
 * total energy  :   -13.1355334 Eh     change        0.3407957E-02 Eh
   gradient norm :     0.5656059 Eh/α   predicted    -0.4070380E-03 (-111.94%)
   displ. norm   :     0.0141804 α      lambda       -0.6933806E-02
   maximum displ.:     0.0126649 α      in ANC's #12, #5, #4, ...

........................................................................
.............................. CYCLE   25 ..............................
........................................................................
   1    -13.1958495 -0.131958E+02  0.520E-02    0.85       0.0  T
   2    -13.1958409  0.860614E-05  0.665E-02    0.90       1.0  T
   3    -13.1958693 -0.283614E-04  0.138E-02    0.87       3.0  T
   4    -13.1958695 -0.200368E-06  0.602E-03    0.87       6.8  T
   5    -13.1958695 -0.370108E-07  0.413E-03    0.87       9.9  T
   6    -13.1958695 -0.413861E-07  0.199E-03    0.87      20.5  T
     SCC iter.                  ...        0 min,  0.000 sec
     gradient                   ...        0 min,  0.000 sec
 * total energy  :   -13.1390032 Eh     change       -0.3469851E-02 Eh
   gradient norm :     0.0059019 Eh/α   predicted    -0.3467601E-02 (  -0.06%)
   displ. norm   :     0.0080021 α      lambda       -0.1833843E-05
   maximum displ.:     0.0061170 α      in ANC's #1, #4, #3, ...

........................................................................
.............................. CYCLE   26 ..............................
........................................................................
   1    -13.1958779 -0.131959E+02  0.160E-02    0.87       0.0  T
   2    -13.1958779 -0.380667E-08  0.937E-03    0.87       4.4  T
   3    -13.1958778  0.714021E-07  0.326E-03    0.87      12.5  T
   4    -13.1958779 -0.778750E-07  0.811E-04    0.87      50.3  T
   5    -13.1958779 -0.147013E-08  0.540E-04    0.87      75.6  T
     SCC iter.                  ...        0 min,  0.000 sec
     gradient                   ...        0 min,  0.000 sec
 * total energy  :   -13.1390040 Eh     change       -0.7809614E-06 Eh
   gradient norm :     0.0013222 Eh/α   predicted    -0.9166199E-06 (  17.37%)
   displ. norm   :     0.0020638 α      lambda       -0.1222742E-06
   maximum displ.:     0.0017662 α      in ANC's #4, #3, #5, ...

........................................................................
.............................. CYCLE   27 ..............................
........................................................................
   1    -13.1958734 -0.131959E+02  0.334E-03    0.87       0.0  T
   2    -13.1958734 -0.578213E-09  0.193E-03    0.87      21.2  T
   3    -13.1958734 -0.133285E-09  0.215E-04    0.87     189.8  T
   4    -13.1958734 -0.154419E-10  0.147E-04    0.87     277.5  T
     SCC iter.                  ...        0 min,  0.000 sec
     gradient                   ...        0 min,  0.000 sec
 * total energy  :   -13.1390041 Eh     change       -0.8335843E-07 Eh
   gradient norm :     0.0003395 Eh/α   predicted    -0.6265918E-07 ( -24.83%)
   displ. norm   :     0.0021199 α      lambda       -0.2523004E-07
   maximum displ.:     0.0020217 α      in ANC's #1, #2, #6, ...

   *** GEOMETRY OPTIMIZATION CONVERGED AFTER 27 ITERATIONS ***

------------------------------------------------------------------------
 total energy gain   :       -40.3764583 Eh   -25336.6101 kcal/mol
 total RMSD          :         0.5374402 a0        0.2844 Å
 total power (kW/mol):     -3926.2361788 (step)********** (real)
------------------------------------------------------------------------

 ANCopt (total)                0 d,  0 h,  0 min,  0.034 sec
 optimizer setup                ...        0 min,  0.000 sec (  0.172%)
 model hessian                  ...        0 min,  0.000 sec (  0.525%)
 ANC generation                 ...        0 min,  0.000 sec (  0.362%)
 coordinate transformation      ...        0 min,  0.000 sec (  0.364%)
 single point calculation       ...        0 min,  0.031 sec ( 92.182%)
 optimization log               ...        0 min,  0.001 sec (  1.791%)
 hessian update                 ...        0 min,  0.000 sec (  0.300%)
 rational function              ...        0 min,  0.001 sec (  2.095%)

================
 final structure:
================
6
 xtb: 6.2.3 (830e466)
F        -3.13960596045832   -0.18280191532796    0.05981860966928
Cl        1.53224260250081    0.09166342984968   -0.02269199017704
C        -0.41086169631041   -0.02396797696956    0.00696568548371
H        -0.68781485610187   -0.60594682105218   -0.85606524041445
H        -0.66640228501045   -0.50911180377579    0.93406239727852
H        -0.77050780461976    0.99008508727581   -0.04338946184001
 
 Bond Distances (Angstroems)
 ---------------------------
Cl2-C3=1.9468        C3-Cl2=1.9468        C3-H4=1.0771         C3-H5=1.0771         C3-H6=1.0771         H4-C3=1.0771         
H5-C3=1.0771         H6-C3=1.0771         
 C  H  Rav=1.0771 sigma=0.0000  Rmin=1.0771  Rmax=1.0771     3
 Cl C  Rav=1.9468 sigma=0.0000  Rmin=1.9468  Rmax=1.9468     1
 
 selected bond angles (degree)
 --------------------
H4-C3-Cl2=106.05               H5-C3-Cl2=106.06               H5-C3-H4=112.66                H6-C3-Cl2=106.06               
H6-C3-H4=112.67                H6-C3-H5=112.65                
 
 selected dihedral angles (degree)
 ---------------------------------

 
 CMA Distance (Angstroems)
 ---------------------------
R(CMA):  4.0831
           -------------------------------------------------
          |                Final Singlepoint                |
           -------------------------------------------------

          ...................................................
          :                      SETUP                      :
          :.................................................:
          :  # basis functions                  21          :
          :  # atomic orbitals                  20          :
          :  # shells                           10          :
          :  # electrons                        22          :
          :  max. iterations                   250          :
          :  Hamiltonian                  GFN2-xTB          :
          :  restarted?                      false          :
          :  GBSA solvation                  false          :
          :  PC potential                    false          :
          :  electronic temp.          300.0000000     K    :
          :  accuracy                    1.0000000          :
          :  -> integral cutoff          0.2500000E+02      :
          :  -> integral neglect         0.1000000E-07      :
          :  -> SCF convergence          0.1000000E-05 Eh   :
          :  -> wf. convergence          0.1000000E-03 e    :
          :  Broyden damping             0.4000000          :
          ...................................................

 iter      E             dE          RMSdq      gap      omega  full diag
   1    -13.1958734 -0.131959E+02  0.140E-04    0.87       0.0  T
   2    -13.1958734  0.151861E-10  0.104E-04    0.87     391.7  T
   3    -13.1958734 -0.594920E-10  0.890E-05    0.87     458.7  T

   *** convergence criteria satisfied after 3 iterations ***

         #    Occupation            Energy/Eh            Energy/eV
      -------------------------------------------------------------
         1        2.0000           -0.9082622             -24.7151
       ...           ...                  ...                  ...
         5        2.0000           -0.3459754              -9.4145
         6        2.0000           -0.3310668              -9.0088
         7        2.0000           -0.2740010              -7.4559
         8        2.0000           -0.2739944              -7.4558
         9        2.0000           -0.1023562              -2.7853
        10        2.0000           -0.1002423              -2.7277
        11        2.0000           -0.1002410              -2.7277 (HOMO)
        12        0.0000           -0.0681392              -1.8542 (LUMO)
        13                          0.1779886               4.8433
        14                          0.1779925               4.8434
        15                          0.1796390               4.8882
        16                          0.1796421               4.8883
       ...                                ...                  ...
        20                          0.3872498              10.5376
      -------------------------------------------------------------
                  HL-Gap            0.0321018 Eh            0.8735 eV
             Fermi-level           -0.0838362 Eh           -2.2813 eV

 SCC (total)                   0 d,  0 h,  0 min,  0.001 sec
 SCC setup                      ...        0 min,  0.000 sec (  5.231%)
 Dispersion                     ...        0 min,  0.000 sec (  0.762%)
 integral evaluation            ...        0 min,  0.000 sec ( 30.041%)
 zeroth order Hamiltonian       ...        0 min,  0.000 sec (  1.397%)
 iterations                     ...        0 min,  0.000 sec ( 24.302%)
 molecular gradient             ...        0 min,  0.000 sec ( 30.904%)
 printout                       ...        0 min,  0.000 sec (  5.104%)

         :::::::::::::::::::::::::::::::::::::::::::::::::::::
         ::                     SUMMARY                     ::
         :::::::::::::::::::::::::::::::::::::::::::::::::::::
         :: total energy             -13.139004085693 Eh    ::
         :: gradient norm              0.000343200122 Eh/a0 ::
         :: HOMO-LUMO gap              0.873535687823 eV    ::
         ::.................................................::
         :: SCC energy               -13.195873373208 Eh    ::
         :: -> isotropic ES            0.230819288286 Eh    ::
         :: -> anisotropic ES         -0.000227724650 Eh    ::
         :: -> anisotropic XC          0.003091243257 Eh    ::
         :: -> dispersion             -0.001938615276 Eh    ::
         :: repulsion energy           0.056864722909 Eh    ::
         :: add. restraining           0.000004988137 Eh    ::
         :::::::::::::::::::::::::::::::::::::::::::::::::::::

           -------------------------------------------------
          |                Property Printout                |
           -------------------------------------------------

    * Orbital Energies and Occupations

         #    Occupation            Energy/Eh            Energy/eV
      -------------------------------------------------------------
         1        2.0000           -0.9082622             -24.7151
         2        2.0000           -0.4450596             -12.1107
         3        2.0000           -0.3689066             -10.0385
         4        2.0000           -0.3460610              -9.4168
         5        2.0000           -0.3459754              -9.4145
         6        2.0000           -0.3310668              -9.0088
         7        2.0000           -0.2740010              -7.4559
         8        2.0000           -0.2739944              -7.4558
         9        2.0000           -0.1023562              -2.7853
        10        2.0000           -0.1002423              -2.7277
        11        2.0000           -0.1002410              -2.7277 (HOMO)
        12        0.0000           -0.0681392              -1.8542 (LUMO)
        13                          0.1779886               4.8433
        14                          0.1779925               4.8434
        15                          0.1796390               4.8882
        16                          0.1796421               4.8883
        17                          0.2245765               6.1110
        18                          0.3094373               8.4202
        19                          0.3872137              10.5366
        20                          0.3872498              10.5376
      -------------------------------------------------------------
                  HL-Gap            0.0321018 Eh            0.8735 eV
             Fermi-level           -0.0838362 Eh           -2.2813 eV

     #   Z        covCN         q      C6AA      α(0)
     1   9 F      0.000    -0.866    21.590     5.412
     2  17 Cl     0.855    -0.369   111.051    16.121
     3   6 C      3.632    -0.008    21.116     6.615
     4   1 H      0.926     0.080     1.975     2.198
     5   1 H      0.926     0.081     1.969     2.195
     6   1 H      0.926     0.081     1.971     2.195

 Mol. C6AA /au·bohr⁶  :        568.763399
 Mol. C8AA /au·bohr⁸  :      15883.462310
 Mol. α(0) /au        :         34.735775


Wiberg/Mayer (AO) data.
largest (>0.10) Wiberg bond orders for each atom
          total WBO             WBO to atom ...
     1  F   0.251        C    3 0.151
     2  Cl  0.899        C    3 0.793
     3  C   3.911        H    4 0.989    H    6 0.989    H    5 0.989    Cl   2 0.793    F    1 0.151
     4  H   0.994        C    3 0.989
     5  H   0.993        C    3 0.989
     6  H   0.993        C    3 0.989

molecular dipole:
                 x           y           z       tot (Debye)
 q only:        3.749       0.217      -0.076
   full:        3.499       0.202      -0.072       8.910
molecular quadrupole (traceless):
                xx          xy          yy          xz          yz          zz
 q only:      -33.531      -2.943      16.688       0.938       0.053      16.842
  q+dip:      -35.631      -3.130      17.733       0.988       0.057      17.898
   full:      -34.678      -3.045      17.259       0.966       0.055      17.419

           -------------------------------------------------
          |                Geometry Summary                 |
           -------------------------------------------------

      molecular mass/u    :       69.4858989
   center of mass at/Å    :       -0.1784729      -0.0091680       0.0064834
  moments of inertia/u·Å² :        0.3240088E+01   0.2744786E+03   0.2744793E+03
rotational constants/cm⁻¹ :        0.5202831E+01   0.6141692E-01   0.6141677E-01

 * 3 selected distances

     #   Z        #   Z                                     value/Å
     3   6 C      4   1 H                                 1.0771373 (max)
     3   6 C      5   1 H                                 1.0771137 (min)
     3   6 C      6   1 H                                 1.0771186

 * 1 distinct bonds (by element types)

   Z      Z             #   av. dist./Å        max./Å        min./Å
   1 H    6 C           3     1.0771232     1.0771373     1.0771137


optimized geometry written to: xtbopt.xyz


           -------------------------------------------------
          | TOTAL ENERGY              -13.139004085693 Eh   |
          | GRADIENT NORM               0.000343200122 Eh/α |
          | HOMO-LUMO GAP               0.873535687823 eV   |
           -------------------------------------------------

------------------------------------------------------------------------
 * finished run on 2020/05/24 at 23:58:50.355     
------------------------------------------------------------------------
 total:
 * wall-time:     0 d,  0 h,  0 min,  0.080 sec
 *  cpu-time:     0 d,  0 h,  0 min,  0.277 sec
 * ratio c/w:     3.457 speedup
 SCF:
 * wall-time:     0 d,  0 h,  0 min,  0.002 sec
 *  cpu-time:     0 d,  0 h,  0 min,  0.002 sec
 * ratio c/w:     1.000 speedup
 ANC optimizer:
 * wall-time:     0 d,  0 h,  0 min,  0.035 sec
 *  cpu-time:     0 d,  0 h,  0 min,  0.142 sec
 * ratio c/w:     4.052 speedup

