
                                 *****************
                                 * O   R   C   A *
                                 *****************

           --- An Ab Initio, DFT and Semiempirical electronic structure package ---

                  #######################################################
                  #                        -***-                        #
                  #          Department of theory and spectroscopy      #
                  #               Directorship: Frank Neese             #
                  #        Max Planck Institute fuer Kohlenforschung    #
                  #                Kaiser Wilhelm Platz 1               #
                  #                 D-45470 Muelheim/Ruhr               #
                  #                      Germany                        #
                  #                                                     #
                  #                  All rights reserved                #
                  #                        -***-                        #
                  #######################################################


                         Program Version 4.1.1  - RELEASE  -


 With contributions from (in alphabetic order):
   Daniel Aravena         : Magnetic Properties
   Michael Atanasov       : Ab Initio Ligand Field Theory
   Alexander A. Auer      : GIAO ZORA
   Ute Becker             : Parallelization
   Giovanni Bistoni       : ED, Open-shell LED
   Martin Brehm           : Molecular dynamics
   Dmytro Bykov           : SCF Hessian
   Vijay G. Chilkuri      : MRCI spin determinant printing
   Dipayan Datta          : RHF DLPNO-CCSD density
   Achintya Kumar Dutta   : EOM-CC, STEOM-CC
   Dmitry Ganyushin       : Spin-Orbit,Spin-Spin,Magnetic field MRCI
   Miquel Garcia          : C-PCM Hessian
   Yang Guo               : DLPNO-NEVPT2, CIM, IAO-localization
   Andreas Hansen         : Spin unrestricted coupled pair/coupled cluster methods
   Benjamin Helmich-Paris : CASSCF linear response (MC-RPA)
   Lee Huntington         : MR-EOM, pCC
   Robert Izsak           : Overlap fitted RIJCOSX, COSX-SCS-MP3, EOM
   Christian Kollmar      : KDIIS, OOCD, Brueckner-CCSD(T), CCSD density
   Simone Kossmann        : Meta GGA functionals, TD-DFT gradient, OOMP2, MP2 Hessian
   Martin Krupicka        : AUTO-CI
   Lucas Lang             : DCDCAS
   Dagmar Lenk            : GEPOL surface, SMD
   Dimitrios Liakos       : Extrapolation schemes; parallel MDCI
   Dimitrios Manganas     : ROCIS; embedding schemes
   Dimitrios Pantazis     : SARC Basis sets
   Taras Petrenko         : DFT Hessian,TD-DFT gradient, ASA, ECA, R-Raman, ABS, FL, XAS/XES, NRVS
   Peter Pinski           : DLPNO-MP2, DLPNO-MP2 Gradient
   Christoph Reimann      : Effective Core Potentials
   Marius Retegan         : Local ZFS, SOC
   Christoph Riplinger    : Optimizer, TS searches, QM/MM, DLPNO-CCSD(T), (RO)-DLPNO pert. Triples
   Tobias Risthaus        : Range-separated hybrids, TD-DFT gradient, RPA, STAB
   Michael Roemelt        : Restricted open shell CIS
   Masaaki Saitow         : Open-shell DLPNO
   Barbara Sandhoefer     : DKH picture change effects
   Avijit Sen             : IP-ROCIS
   Kantharuban Sivalingam : CASSCF convergence, NEVPT2, FIC-MRCI
   Bernardo de Souza      : ESD, SOC TD-DFT
   Georgi Stoychev        : AutoAux, RI-MP2 NMR
   Willem Van den Heuvel  : Paramagnetic NMR
   Boris Wezisla          : Elementary symmetry handling
   Frank Wennmohs         : Technical directorship


 We gratefully acknowledge several colleagues who have allowed us to
 interface, adapt or use parts of their codes:
   Stefan Grimme, W. Hujo, H. Kruse,             : VdW corrections, initial TS optimization,
                  C. Bannwarth                     DFT functionals, gCP, sTDA/sTD-DF
   Ed Valeev                                     : LibInt (2-el integral package), F12 methods
   Garnet Chan, S. Sharma, J. Yang, R. Olivares  : DMRG
   Ulf Ekstrom                                   : XCFun DFT Library
   Mihaly Kallay                                 : mrcc  (arbitrary order and MRCC methods)
   Andreas Klamt, Michael Diedenhofen            : otool_cosmo (COSMO solvation model)
   Jiri Pittner, Ondrej Demel                    : Mk-CCSD
   Frank Weinhold                                : gennbo (NPA and NBO analysis)
   Christopher J. Cramer and Donald G. Truhlar   : smd solvation model
   Lars Goerigk                                  : TD-DFT with DH, B97 family of functionals
   V. Asgeirsson, H. Jonsson                     : NEB implementation
   FAccTs GmbH                                   : IRC, NEB, NEB-TS, Multilevel


 Your calculation uses the libint2 library for the computation of 2-el integrals
 For citations please refer to: http://libint.valeyev.net

 This ORCA versions uses:
   CBLAS   interface :  Fast vector & matrix operations
   LAPACKE interface :  Fast linear algebra routines
   SCALAPACK package :  Parallel linear algebra routines


Your calculation utilizes the atom-pairwise dispersion correction
with the Becke-Johnson damping scheme (D3BJ)
Cite in your paper:
S.Grimme, S.Ehrlich, L.Goerigk, J Comput Chem, (2011), 32, 1456–1465 
S.Grimme, J.Antony, S.Ehrlich and H.Krieg, J.Chem.Phys., 132, (2010), 154104 
   

----- Orbital basis set information -----
Your calculation utilizes the basis: def2-SVP
   F. Weigend and R. Ahlrichs, Phys. Chem. Chem. Phys. 7, 3297 (2005).

----- AuxJ basis set information -----
Your calculation utilizes the auxiliary basis: def2/J
   F. Weigend, Phys. Chem. Chem. Phys. 8, 1057 (2006).

================================================================================
                                        WARNINGS
                       Please study these warnings very carefully!
================================================================================


WARNING: your system is open-shell and RHF/RKS was chosen
  ===> : WILL SWITCH to UHF/UKS


WARNING: Geometry Optimization
  ===> : Switching off AutoStart
         For restart on a previous wavefunction, please use MOREAD

INFO   : the flag for use of LIBINT has been found!

================================================================================
                                       INPUT FILE
================================================================================
NAME = h3_constrained_opt_orca.inp
|  1> ! LooseOpt PBE RI D3BJ def2-SVP def2/J
|  2> %geom Constraints
|  3> { B 0 1 1.0 C }
|  4>     end
|  5> end
|  6> %geom MaxIter 100 end
|  7> %pal nprocs 8
|  8> end
|  9> %scf 
| 10> maxiter 250 
| 11> end
| 12> % maxcore 4000
| 13> *xyz 0 2
| 14> H   0.00000000  0.00000000  0.00000000 
| 15> H   0.70000000  0.00000000  0.00000000 
| 16> H   1.70000000  0.00000000  0.00000000 
| 17> *
| 18> 
| 19>                          ****END OF INPUT****
================================================================================

                       *****************************
                       * Geometry Optimization Run *
                       *****************************

Geometry optimization settings:
Update method            Update   .... BFGS
Choice of coordinates    CoordSys .... Z-matrix Internals
Initial Hessian          InHess   .... Almoef's Model

Convergence Tolerances:
Energy Change            TolE     ....  3.0000e-05 Eh
Max. Gradient            TolMAXG  ....  2.0000e-03 Eh/bohr
RMS Gradient             TolRMSG  ....  5.0000e-04 Eh/bohr
Max. Displacement        TolMAXD  ....  1.0000e-02 bohr
RMS Displacement         TolRMSD  ....  7.0000e-03 bohr

------------------------------------------------------------------------------
                        ORCA OPTIMIZATION COORDINATE SETUP
------------------------------------------------------------------------------

The optimization will be done in new redundant internal coordinates
Making redundant internal coordinates   ...  (new redundants) done
Evaluating the initial hessian          ...  (Almloef) done
Evaluating the coordinates              ...  done
Calculating the B-matrix                .... done
Calculating the G-matrix                .... done
Diagonalizing the G-matrix              .... done
Imposing constraints:
 Iter   0:  RMS(Cart)=    0.0544331054 RMS(Int)=    0.3669178363
 Iter   1:  RMS(Cart)=    0.0544331054 RMS(Int)=    0.1669178363
 Iter   2:  RMS(Cart)=    0.0454292809 RMS(Int)=    0.0000000000
 Iter   3:  RMS(Cart)=    0.0000000000 RMS(Int)=    0.0000000000
CONVERGED
The first mode is                       ....    0
The number of degrees of freedom        ....    4
Storing new coordinates                 .... done

    -----------------------------------------------------------------
                    Redundant Internal Coordinates


    -----------------------------------------------------------------
         Definition                    Initial Value    Approx d2E/dq
    -----------------------------------------------------------------
      1. B(H   1,H   0)                  1.0000         0.288866 C 
      2. B(H   2,H   1)                  1.0000         0.095955   
      3. L(H   0,H   1,H   2, 1)       180.0000         0.180011   
      4. L(H   0,H   1,H   2, 2)       180.0000         0.180011   
    -----------------------------------------------------------------

Number of atoms                         .... 3
Number of degrees of freedom            .... 4

         *************************************************************
         *                GEOMETRY OPTIMIZATION CYCLE   1            *
         *************************************************************
---------------------------------
CARTESIAN COORDINATES (ANGSTROEM)
---------------------------------
  H     -0.200000    0.000000    0.000000
  H      0.800000    0.000000    0.000000
  H      1.800000    0.000000    0.000000

----------------------------
CARTESIAN COORDINATES (A.U.)
----------------------------
  NO LB      ZA    FRAG     MASS         X           Y           Z
   0 H     1.0000    0     1.008   -0.377945    0.000000    0.000000
   1 H     1.0000    0     1.008    1.511781    0.000000    0.000000
   2 H     1.0000    0     1.008    3.401507    0.000000    0.000000

--------------------------------
INTERNAL COORDINATES (ANGSTROEM)
--------------------------------
 H      0   0   0     0.000000000000     0.00000000     0.00000000
 H      1   0   0     0.700000000000     0.00000000     0.00000000
 H      2   1   0     1.000000000000   179.99999879     0.00000000

---------------------------
INTERNAL COORDINATES (A.U.)
---------------------------
 H      0   0   0     0.000000000000     0.00000000     0.00000000
 H      1   0   0     1.322808293745     0.00000000     0.00000000
 H      2   1   0     1.889726133921   179.99999879     0.00000000

---------------------
BASIS SET INFORMATION
---------------------
There are 1 groups of distinct atoms

 Group   1 Type H   : 4s1p contracted to 2s1p pattern {31/1}

Atom   0H    basis set group =>   1
Atom   1H    basis set group =>   1
Atom   2H    basis set group =>   1
-------------------------------
AUXILIARY BASIS SET INFORMATION
-------------------------------
There are 1 groups of distinct atoms

 Group   1 Type H   : 5s2p1d contracted to 3s1p1d pattern {311/2/1}

Atom   0H    basis set group =>   1
Atom   1H    basis set group =>   1
Atom   2H    basis set group =>   1


           ************************************************************
           *        Program running with 8 parallel MPI-processes     *
           *              working on a common directory               *
           ************************************************************
------------------------------------------------------------------------------
                           ORCA GTO INTEGRAL CALCULATION
                           -- RI-GTO INTEGRALS CHOSEN --
------------------------------------------------------------------------------

                         BASIS SET STATISTICS AND STARTUP INFO

Gaussian basis set:
 # of primitive gaussian shells          ...   15
 # of primitive gaussian functions       ...   21
 # of contracted shells                  ...    9
 # of contracted basis functions         ...   15
 Highest angular momentum                ...    1
 Maximum contraction depth               ...    3
Auxiliary gaussian basis set:
 # of primitive gaussian shells          ...   24
 # of primitive gaussian functions       ...   48
 # of contracted shells                  ...   15
 # of contracted aux-basis functions     ...   33
 Highest angular momentum                ...    2
 Maximum contraction depth               ...    3
Ratio of auxiliary to basis functions    ...  2.20
Integral package used                  ... LIBINT
 One Electron integrals                  ... done
 Ordering auxiliary basis shells         ... done
 Integral threshhold             Thresh  ...  2.500e-11
 Primitive cut-off               TCut    ...  2.500e-12
 Pre-screening matrix                    ... done
 Shell pair data                         ... 
 Ordering of the shell pairs             ... done (   0.000 sec) 45 of 45 pairs
 Determination of significant pairs      ... done (   0.000 sec)
 Creation of shell pair data             ... done (   0.000 sec)
 Storage of shell pair data              ... done (   0.034 sec)
 Shell pair data done in (   0.034 sec)
 Computing two index integrals           ... done
 Cholesky decomposition of the V-matrix  ... done


Timings:
 Total evaluation time                   ...   0.161 sec (  0.003 min)
 One electron matrix time                ...   0.011 sec (  0.000 min) =  7.0%
 Schwartz matrix evaluation time         ...   0.106 sec (  0.002 min) = 65.8%
 Two index repulsion integral time       ...   0.000 sec (  0.000 min) =  0.1%
 Cholesky decomposition of V             ...   0.000 sec (  0.000 min) =  0.2%
 Three index repulsion integral time     ...   0.000 sec (  0.000 min) =  0.0%



           ************************************************************
           *        Program running with 8 parallel MPI-processes     *
           *              working on a common directory               *
           ************************************************************
-------------------------------------------------------------------------------
                                 ORCA SCF
-------------------------------------------------------------------------------

------------
SCF SETTINGS
------------
Hamiltonian:
 Density Functional     Method          .... DFT(GTOs)
 Exchange Functional    Exchange        .... PBE
   PBE kappa parameter   XKappa         ....  0.804000
   PBE mue parameter    XMuePBE         ....  0.219520
 Correlation Functional Correlation     .... PBE
   PBE beta parameter  CBetaPBE         ....  0.066725
 LDA part of GGA corr.  LDAOpt          .... PW91-LDA
 Gradients option       PostSCFGGA      .... off
   Density functional embedding theory  .... OFF
   NL short-range parameter             ....  6.400000
 RI-approximation to the Coulomb term is turned on
   Number of auxiliary basis functions  .... 33


General Settings:
 Integral files         IntName         .... h3_constrained_opt_orca
 Hartree-Fock type      HFTyp           .... UHF
 Total Charge           Charge          ....    0
 Multiplicity           Mult            ....    2
 Number of Electrons    NEL             ....    3
 Basis Dimension        Dim             ....   15
 Nuclear Repulsion      ENuc            ....      1.3229430221 Eh

Convergence Acceleration:
 DIIS                   CNVDIIS         .... on
   Start iteration      DIISMaxIt       ....    12
   Startup error        DIISStart       ....  0.200000
   # of expansion vecs  DIISMaxEq       ....     5
   Bias factor          DIISBfac        ....   1.050
   Max. coefficient     DIISMaxC        ....  10.000
 Newton-Raphson         CNVNR           .... off
 SOSCF                  CNVSOSCF        .... off
 Level Shifting         CNVShift        .... on
   Level shift para.    LevelShift      ....    0.2500
   Turn off err/grad.   ShiftErr        ....    0.0010
 Zerner damping         CNVZerner       .... off
 Static damping         CNVDamp         .... on
   Fraction old density DampFac         ....    0.7000
   Max. Damping (<1)    DampMax         ....    0.9800
   Min. Damping (>=0)   DampMin         ....    0.0000
   Turn off err/grad.   DampErr         ....    0.1000
 Fernandez-Rico         CNVRico         .... off

SCF Procedure:
 Maximum # iterations   MaxIter         ....   250
 SCF integral mode      SCFMode         .... Direct
   Integral package                     .... LIBINT
 Reset frequency        DirectResetFreq ....    20
 Integral Threshold     Thresh          ....  2.500e-11 Eh
 Primitive CutOff       TCut            ....  2.500e-12 Eh

Convergence Tolerance:
 Convergence Check Mode ConvCheckMode   .... Total+1el-Energy
 Convergence forced     ConvForced      .... 0
 Energy Change          TolE            ....  1.000e-08 Eh
 1-El. energy change                    ....  1.000e-05 Eh
 DIIS Error             TolErr          ....  5.000e-07


Diagonalization of the overlap matrix:
Smallest eigenvalue                        ... 3.432e-02
Time for diagonalization                   ...    0.000 sec
Threshold for overlap eigenvalues          ... 1.000e-08
Number of eigenvalues below threshold      ... 0
Time for construction of square roots      ...    0.001 sec
Total time needed                          ...    0.001 sec

-------------------
DFT GRID GENERATION
-------------------

General Integration Accuracy     IntAcc      ...  4.340
Radial Grid Type                 RadialGrid  ... Gauss-Chebyshev
Angular Grid (max. acc.)         AngularGrid ... Lebedev-110
Angular grid pruning method      GridPruning ... 3 (G Style)
Weight generation scheme         WeightScheme... Becke
Basis function cutoff            BFCut       ...    1.0000e-11
Integration weight cutoff        WCut        ...    1.0000e-14
Grids for H and He will be reduced by one unit

# of grid points (after initial pruning)     ...   2382 (   0.0 sec)
# of grid points (after weights+screening)   ...   2338 (   0.0 sec)
nearest neighbour list constructed           ...    0.0 sec
Grid point re-assignment to atoms done       ...    0.0 sec
Grid point division into batches done        ...    0.0 sec
Reduced shell lists constructed in    0.0 sec

Total number of grid points                  ...     2338
Total number of batches                      ...       39
Average number of points per batch           ...       59
Average number of grid points per atom       ...      779
Average number of shells per batch           ...     7.33 (81.48%)
Average number of basis functions per batch  ...    12.00 (80.00%)
Average number of large shells per batch     ...     7.00 (95.45%)
Average number of large basis fcns per batch ...    11.33 (94.44%)
Maximum spatial batch extension              ...  12.23, 21.59, 21.59 au
Average spatial batch extension              ...   1.11,  2.11,  2.36 au

Time for grid setup =    0.008 sec

------------------------------
INITIAL GUESS: MODEL POTENTIAL
------------------------------
Loading Hartree-Fock densities                     ... done
Calculating cut-offs                               ... done
Setting up the integral package                    ... done
Initializing the effective Hamiltonian             ... done
Starting the Coulomb interaction                   ... done (   0.0 sec)
Reading the grid                                   ... done
Mapping shells                                     ... done
Starting the XC term evaluation                    ... done (   0.0 sec)
  promolecular density results
     # of electrons  =      2.990189972
     EX              =     -0.826169124
     EC              =     -0.064154332
     EX+EC           =     -0.890323456
Transforming the Hamiltonian                       ... done (   0.0 sec)
Diagonalizing the Hamiltonian                      ... done (   0.0 sec)
Back transforming the eigenvectors                 ... done (   0.0 sec)
Now organizing SCF variables                       ... done
                      ------------------
                      INITIAL GUESS DONE (   0.1 sec)
                      ------------------
--------------
SCF ITERATIONS
--------------
ITER       Energy         Delta-E        Max-DP      RMS-DP      [F,P]     Damp
               ***  Starting incremental Fock matrix formation  ***
  0     -1.6497359493   0.000000000000 0.01038957  0.00080532  0.0308722 0.7000
  1     -1.6506890449  -0.000953095603 0.00925420  0.00080371  0.0209084 0.7000
                               ***Turning on DIIS***
  2     -1.6513974267  -0.000708381754 0.02250095  0.00213646  0.0123688 0.0000
  3     -1.6530980579  -0.001700631218 0.00561645  0.00041991  0.0060568 0.0000
  4     -1.6532064417  -0.000108383790 0.00340581  0.00032690  0.0018176 0.0000
  5     -1.6532434870  -0.000037045366 0.00247385  0.00025336  0.0005698 0.0000
  6     -1.6532516537  -0.000008166680 0.00024429  0.00002756  0.0000396 0.0000
  7     -1.6532517783  -0.000000124571 0.00001430  0.00000108  0.0000020 0.0000
                 **** Energy Check signals convergence ****

               *****************************************************
               *                     SUCCESS                       *
               *           SCF CONVERGED AFTER   8 CYCLES          *
               *****************************************************

Setting up the final grid:

General Integration Accuracy     IntAcc      ...  4.670
Radial Grid Type                 RadialGrid  ... Gauss-Chebyshev
Angular Grid (max. acc.)         AngularGrid ... Lebedev-302
Angular grid pruning method      GridPruning ... 3 (G Style)
Weight generation scheme         WeightScheme... Becke
Basis function cutoff            BFCut       ...    1.0000e-11
Integration weight cutoff        WCut        ...    1.0000e-14
Grids for H and He will be reduced by one unit

# of grid points (after initial pruning)     ...  10182 (   0.0 sec)
# of grid points (after weights+screening)   ...  10066 (   0.0 sec)
nearest neighbour list constructed           ...    0.0 sec
Grid point re-assignment to atoms done       ...    0.0 sec
Grid point division into batches done        ...    0.0 sec
Reduced shell lists constructed in    0.0 sec

Total number of grid points                  ...    10066
Total number of batches                      ...      159
Average number of points per batch           ...       63
Average number of grid points per atom       ...     3355
Average number of shells per batch           ...     6.00 (66.67%)
Average number of basis functions per batch  ...     8.67 (57.78%)
Average number of large shells per batch     ...     5.24 (87.30%)
Average number of large basis fcns per batch ...     7.43 (85.71%)
Maximum spatial batch extension              ...  11.77, 15.43, 15.43 au
Average spatial batch extension              ...   0.93,  1.08,  1.02 au

Final grid set up in    0.0 sec
Final integration                            ... done (   0.0 sec)
Change in XC energy                          ...    -0.000662297
Integrated number of electrons               ...     3.000001820
Previous integrated no of electrons          ...     2.994161311

----------------
TOTAL SCF ENERGY
----------------

Total Energy       :           -1.65391408 Eh             -45.00529 eV

Components:
Nuclear Repulsion  :            1.32294302 Eh              35.99911 eV
Electronic Energy  :           -2.97685710 Eh             -81.00440 eV
One Electron Energy:           -4.21377840 Eh            -114.66274 eV
Two Electron Energy:            1.23692131 Eh              33.65834 eV

Virial components:
Potential Energy   :           -3.18604183 Eh             -86.69661 eV
Kinetic Energy     :            1.53212775 Eh              41.69132 eV
Virial Ratio       :            2.07948836


DFT components:
N(Alpha)           :        2.000001407725 electrons
N(Beta)            :        1.000000412029 electrons
N(Total)           :        3.000001819755 electrons
E(X)               :       -0.912033406579 Eh       
E(C)               :       -0.061737789994 Eh       
E(XC)              :       -0.973771196573 Eh       
DFET-embed. en.    :        0.000000000000 Eh       

---------------
SCF CONVERGENCE
---------------

  Last Energy change         ...   -2.8604e-10  Tolerance :   1.0000e-08
  Last MAX-Density change    ...    1.6233e-06  Tolerance :   1.0000e-07
  Last RMS-Density change    ...    1.1016e-07  Tolerance :   5.0000e-09
  Last DIIS Error            ...    1.9085e-07  Tolerance :   5.0000e-07

             **** THE GBW FILE WAS UPDATED (h3_constrained_opt_orca.gbw) ****
             **** DENSITY FILE WAS UPDATED (h3_constrained_opt_orca.scfp.tmp) ****
             **** ENERGY FILE WAS UPDATED (h3_constrained_opt_orca.en.tmp) ****
----------------------
UHF SPIN CONTAMINATION
----------------------

Warning: in a DFT calculation there is little theoretical justification to 
         calculate <S**2> as in Hartree-Fock theory. We will do it anyways
         but you should keep in mind that the values have only limited relevance

Expectation value of <S**2>     :     0.758933
Ideal value S*(S+1) for S=0.5   :     0.750000
Deviation                       :     0.008933

----------------
ORBITAL ENERGIES
----------------
                 SPIN UP ORBITALS
  NO   OCC          E(Eh)            E(eV) 
   0   1.0000      -0.429808       -11.6957 
   1   1.0000      -0.224551        -6.1103 
   2   0.0000       0.073149         1.9905 
   3   0.0000       0.384816        10.4714 
   4   0.0000       0.394334        10.7304 
   5   0.0000       0.608505        16.5583 
   6   0.0000       1.011062        27.5124 
   7   0.0000       1.011062        27.5124 
   8   0.0000       1.302906        35.4539 
   9   0.0000       1.302906        35.4539 
  10   0.0000       1.373111        37.3642 
  11   0.0000       1.858702        50.5779 
  12   0.0000       1.858702        50.5779 
  13   0.0000       2.146415        58.4069 
  14   0.0000       3.247897        88.3798 

                 SPIN DOWN ORBITALS
  NO   OCC          E(Eh)            E(eV) 
   0   1.0000      -0.389570       -10.6007 
   1   0.0000      -0.131396        -3.5755 
   2   0.0000       0.118794         3.2325 
   3   0.0000       0.424370        11.5477 
   4   0.0000       0.461966        12.5707 
   5   0.0000       0.655214        17.8293 
   6   0.0000       1.048821        28.5399 
   7   0.0000       1.048821        28.5399 
   8   0.0000       1.406734        38.2792 
   9   0.0000       1.406734        38.2792 
  10   0.0000       1.455829        39.6151 
  11   0.0000       1.909343        51.9559 
  12   0.0000       1.909343        51.9559 
  13   0.0000       2.231797        60.7303 
  14   0.0000       3.303348        89.8887 

                    ********************************
                    * MULLIKEN POPULATION ANALYSIS *
                    ********************************

--------------------------------------------
MULLIKEN ATOMIC CHARGES AND SPIN POPULATIONS
--------------------------------------------
   0 H :    0.010534    0.576198
   1 H :   -0.021068   -0.152396
   2 H :    0.010534    0.576198
Sum of atomic charges         :    0.0000000
Sum of atomic spin populations:    1.0000000

-----------------------------------------------------
MULLIKEN REDUCED ORBITAL CHARGES AND SPIN POPULATIONS
-----------------------------------------------------
CHARGE
  0 H s       :     0.982410  s :     0.982410
      pz      :     0.000000  p :     0.007056
      px      :     0.007056
      py      :     0.000000
  1 H s       :     1.007125  s :     1.007125
      pz      :    -0.000000  p :     0.013943
      px      :     0.013943
      py      :    -0.000000
  2 H s       :     0.982410  s :     0.982410
      pz      :     0.000000  p :     0.007056
      px      :     0.007056
      py      :     0.000000

SPIN
  0 H s       :     0.577355  s :     0.577355
      pz      :     0.000000  p :    -0.001157
      px      :    -0.001157
      py      :     0.000000
  1 H s       :    -0.166339  s :    -0.166339
      pz      :    -0.000000  p :     0.013943
      px      :     0.013943
      py      :    -0.000000
  2 H s       :     0.577355  s :     0.577355
      pz      :     0.000000  p :    -0.001157
      px      :    -0.001157
      py      :     0.000000


                     *******************************
                     * LOEWDIN POPULATION ANALYSIS *
                     *******************************

-------------------------------------------
LOEWDIN ATOMIC CHARGES AND SPIN POPULATIONS
-------------------------------------------
   0 H :    0.003512    0.496122
   1 H :   -0.007025    0.007756
   2 H :    0.003512    0.496122

----------------------------------------------------
LOEWDIN REDUCED ORBITAL CHARGES AND SPIN POPULATIONS
----------------------------------------------------
CHARGE
  0 H s       :     0.971158  s :     0.971158
      pz      :     0.000000  p :     0.025330
      px      :     0.025330
      py      :     0.000000
  1 H s       :     0.924027  s :     0.924027
      pz      :     0.000000  p :     0.082998
      px      :     0.082998
      py      :     0.000000
  2 H s       :     0.971158  s :     0.971158
      pz      :     0.000000  p :     0.025330
      px      :     0.025330
      py      :     0.000000

SPIN
  0 H s       :     0.497868  s :     0.497868
      pz      :     0.000000  p :    -0.001746
      px      :    -0.001746
      py      :     0.000000
  1 H s       :    -0.075242  s :    -0.075242
      pz      :     0.000000  p :     0.082998
      px      :     0.082998
      py      :     0.000000
  2 H s       :     0.497868  s :     0.497868
      pz      :     0.000000  p :    -0.001746
      px      :    -0.001746
      py      :     0.000000


                      *****************************
                      * MAYER POPULATION ANALYSIS *
                      *****************************

  NA   - Mulliken gross atomic population
  ZA   - Total nuclear charge
  QA   - Mulliken gross atomic charge
  VA   - Mayer's total valence
  BVA  - Mayer's bonded valence
  FA   - Mayer's free valence

  ATOM       NA         ZA         QA         VA         BVA        FA
  0 H      0.9895     1.0000     0.0105     0.9547     0.6206     0.3341
  1 H      1.0211     1.0000    -0.0211     1.0258     0.9998     0.0260
  2 H      0.9895     1.0000     0.0105     0.9547     0.6206     0.3341

  Mayer bond orders larger than 0.1
B(  0-H ,  1-H ) :   0.4999 B(  0-H ,  2-H ) :   0.1207 B(  1-H ,  2-H ) :   0.4999 


-------
TIMINGS
-------

Total SCF time: 0 days 0 hours 0 min 1 sec 

Total time                  ....       1.133 sec
Sum of individual times     ....       1.029 sec  ( 90.8%)

Fock matrix formation       ....       0.887 sec  ( 78.3%)
  Split-RI-J                ....       0.833 sec  ( 93.9% of F)
  XC integration            ....       0.030 sec  (  3.4% of F)
    Basis function eval.    ....       0.002 sec  (  6.6% of XC)
    Density eval.           ....       0.002 sec  (  6.2% of XC)
    XC-Functional eval.     ....       0.002 sec  (  8.1% of XC)
    XC-Potential eval.      ....       0.001 sec  (  2.5% of XC)
Diagonalization             ....       0.001 sec  (  0.1%)
Density matrix formation    ....       0.000 sec  (  0.0%)
Population analysis         ....       0.002 sec  (  0.1%)
Initial guess               ....       0.097 sec  (  8.6%)
Orbital Transformation      ....       0.000 sec  (  0.0%)
Orbital Orthonormalization  ....       0.000 sec  (  0.0%)
DIIS solution               ....       0.001 sec  (  0.1%)
Grid generation             ....       0.040 sec  (  3.6%)


-------------------------------------------------------------------------------
                          DFT DISPERSION CORRECTION                            
                                                                               
                              DFTD3 V3.1  Rev 1                                
                          USING Becke-Johnson damping                          
-------------------------------------------------------------------------------
The PBE functional is recognized
Active option DFTDOPT                   ...         4   

molecular C6(AA) [au] = 64.259222 


            DFT-D V3
 parameters
 s6 scaling factor         :     1.0000 
 a1 scaling factor         :     0.4289 
 s8 scaling factor         :     0.7875 
 a2 scaling factor         :     4.4407 
 ad hoc parameters k1-k3   :    16.0000     1.3333    -4.0000 

 Edisp/kcal,au: -0.384457123684  -0.000612671360 
 E6   /kcal   :  -0.301748788 
 E8   /kcal   :  -0.082708335 
 % E8         :  21.513019315 

-------------------------   ----------------
Dispersion correction           -0.000612671
-------------------------   ----------------


-------------------------   --------------------
FINAL SINGLE POINT ENERGY        -1.654526747132
-------------------------   --------------------



           ************************************************************
           *        Program running with 8 parallel MPI-processes     *
           *              working on a common directory               *
           ************************************************************
------------------------------------------------------------------------------
                         ORCA SCF GRADIENT CALCULATION
------------------------------------------------------------------------------

Gradient of the Kohn-Sham DFT energy:
Kohn-Sham wavefunction type      ... UKS
Hartree-Fock exchange scaling    ...    0.000
Number of operators              ...    2
Number of atoms                  ...    3
Basis set dimensions             ...   15
Integral neglect threshold       ... 2.5e-11
Integral primitive cutoff        ... 2.5e-12

Nuclear repulsion gradient       ... done
One Electron Gradient            ... done
Pre-screening matrix             ... done
RI-J gradient                    ... done
Exchange-correlation gradient    ... done
Dispersion correction            ... done

------------------
CARTESIAN GRADIENT
------------------

   1   H   :   -0.013095853   -0.000000000    0.000000000
   2   H   :    0.000000000   -0.000000000    0.000000000
   3   H   :    0.013095853    0.000000000   -0.000000000

Difference to translation invariance:
           :   -0.0000000000   -0.0000000000   -0.0000000000

Norm of the cartesian gradient     ...    0.0185203327
RMS gradient                       ...    0.0061734442
MAX gradient                       ...    0.0130958529

-------
TIMINGS
-------

Total SCF gradient time            ...        0.315 sec

One electron gradient       ....       0.002 sec  (  0.5%)
Prescreening matrices       ....       0.000 sec  (  0.0%)
RI-J Coulomb gradient       ....       0.085 sec  ( 26.9%)
XC gradient                 ....       0.008 sec  (  2.4%)
------------------------------------------------------------------------------
                         ORCA GEOMETRY RELAXATION STEP
------------------------------------------------------------------------------

Reading the OPT-File                    .... done
Getting information on internals        .... done
Copying old internal coords+grads       .... done
Making the new internal coordinates     .... (new redundants).... done
Validating the new internal coordinates .... (new redundants).... done
Calculating the B-matrix                .... done
Calculating the G,G- and P matrices     .... done
Transforming gradient to internals      .... done
Projecting the internal gradient        .... done
Number of atoms                         ....   3
Number of internal coordinates          ....   4
Current Energy                          ....    -1.654526747 Eh
Current gradient norm                   ....     0.018520333 Eh/bohr
Maximum allowed component of the step   ....  0.300
Current trust radius                    ....  0.300
Evaluating the initial hessian          ....  (Almloef) done
Projecting the Hessian                  .... done
Forming the augmented Hessian           .... done
Diagonalizing the augmented Hessian     .... done
Last element of RFO vector              ....  0.991137480
Lowest eigenvalues of augmented Hessian:
 -0.001755210  0.097709874  0.159918886  0.159918886
Length of the computed step             ....  0.134027936
The final length of the internal step   ....  0.134027936
Converting the step to cartesian space:
 Initial RMS(Int)=    0.0670139679
Transforming coordinates:
 Iter   0:  RMS(Cart)=    0.0364777838 RMS(Int)=    0.0670139679
 Iter   1:  RMS(Cart)=    0.0000000000 RMS(Int)=    0.0000000000
Imposing constraints:
 Iter   0:  RMS(Cart)=    0.0000000000 RMS(Int)=    0.0000000000
CONVERGED
done
Storing new coordinates                 .... done

                                .--------------------.
          ----------------------|Geometry convergence|-------------------------
          Item                value                   Tolerance       Converged
          ---------------------------------------------------------------------
          RMS gradient        0.0065479264            0.0005000000      NO
          MAX gradient        0.0130958528            0.0020000000      NO
          RMS step            0.0670139679            0.0070000000      NO
          MAX step            0.1340279359            0.0100000000      NO
          ........................................................
          Max(Bonds)      0.0709      Max(Angles)    0.00
          Max(Dihed)        0.00      Max(Improp)    0.00
          ---------------------------------------------------------------------

The optimization has not yet converged - more geometry cycles are needed


    ---------------------------------------------------------------------------
                         Redundant Internal Coordinates
                            (Angstroem and degrees)

        Definition                    Value    dE/dq     Step     New-Value
    ----------------------------------------------------------------------------
     1. B(H   1,H   0)                1.0000  0.013096  0.0000    1.0000 C 
     2. B(H   2,H   1)                1.0000  0.013096 -0.0709    0.9291   
     3. L(H   0,H   1,H   2, 1)       180.00 -0.000000    0.00    180.00   
     4. L(H   0,H   1,H   2, 2)       180.00 -0.000000    0.00    180.00   
    ----------------------------------------------------------------------------

         *************************************************************
         *                GEOMETRY OPTIMIZATION CYCLE   2            *
         *************************************************************
---------------------------------
CARTESIAN COORDINATES (ANGSTROEM)
---------------------------------
  H     -0.176358   -0.000000    0.000000
  H      0.823642    0.000000   -0.000000
  H      1.752717   -0.000000    0.000000

----------------------------
CARTESIAN COORDINATES (A.U.)
----------------------------
  NO LB      ZA    FRAG     MASS         X           Y           Z
   0 H     1.0000    0     1.008   -0.333269   -0.000000    0.000000
   1 H     1.0000    0     1.008    1.556457    0.000000   -0.000000
   2 H     1.0000    0     1.008    3.312155   -0.000000    0.000000

--------------------------------
INTERNAL COORDINATES (ANGSTROEM)
--------------------------------
 H      0   0   0     0.000000000000     0.00000000     0.00000000
 H      1   0   0     0.999999997925     0.00000000     0.00000000
 H      2   1   0     0.929075471047   180.00000000     0.00000000

---------------------------
INTERNAL COORDINATES (A.U.)
---------------------------
 H      0   0   0     0.000000000000     0.00000000     0.00000000
 H      1   0   0     1.889726130000     0.00000000     0.00000000
 H      2   1   0     1.755698198023   180.00000000     0.00000000



           ************************************************************
           *        Program running with 8 parallel MPI-processes     *
           *              working on a common directory               *
           ************************************************************
 One Electron integrals                  ... done
 Pre-screening matrix                    ... done


           ************************************************************
           *        Program running with 8 parallel MPI-processes     *
           *              working on a common directory               *
           ************************************************************

Diagonalization of the overlap matrix:
Smallest eigenvalue                        ... 3.065e-02
Time for diagonalization                   ...    0.001 sec
Threshold for overlap eigenvalues          ... 1.000e-08
Number of eigenvalues below threshold      ... 0
Time for construction of square roots      ...    0.001 sec
Total time needed                          ...    0.001 sec

-------------------
DFT GRID GENERATION
-------------------

General Integration Accuracy     IntAcc      ...  4.340
Radial Grid Type                 RadialGrid  ... Gauss-Chebyshev
Angular Grid (max. acc.)         AngularGrid ... Lebedev-110
Angular grid pruning method      GridPruning ... 3 (G Style)
Weight generation scheme         WeightScheme... Becke
Basis function cutoff            BFCut       ...    1.0000e-11
Integration weight cutoff        WCut        ...    1.0000e-14
Grids for H and He will be reduced by one unit

# of grid points (after initial pruning)     ...   2382 (   0.0 sec)
# of grid points (after weights+screening)   ...   2338 (   0.0 sec)
nearest neighbour list constructed           ...    0.0 sec
Grid point re-assignment to atoms done       ...    0.0 sec
Grid point division into batches done        ...    0.0 sec
Reduced shell lists constructed in    0.0 sec

Total number of grid points                  ...     2338
Total number of batches                      ...       39
Average number of points per batch           ...       59
Average number of grid points per atom       ...      779
Average number of shells per batch           ...     7.33 (81.48%)
Average number of basis functions per batch  ...    12.00 (80.00%)
Average number of large shells per batch     ...     7.00 (95.45%)
Average number of large basis fcns per batch ...    11.33 (94.44%)
Maximum spatial batch extension              ...  12.23, 21.59, 21.59 au
Average spatial batch extension              ...   1.11,  2.11,  2.36 au

Time for grid setup =    0.008 sec

--------------
SCF ITERATIONS
--------------
ITER       Energy         Delta-E        Max-DP      RMS-DP      [F,P]     Damp
               ***  Starting incremental Fock matrix formation  ***
  0     -1.6536712207   0.000000000000 0.00344841  0.00032607  0.0140280 0.7000
  1     -1.6538394515  -0.000168230853 0.00332357  0.00033771  0.0110119 0.7000
                               ***Turning on DIIS***
  2     -1.6539739649  -0.000134513401 0.00892759  0.00102364  0.0082364 0.0000
  3     -1.6543039697  -0.000330004823 0.00293679  0.00036421  0.0022000 0.0000
  4     -1.6543245092  -0.000020539513 0.00166842  0.00019867  0.0011463 0.0000
  5     -1.6543307555  -0.000006246258 0.00203735  0.00025410  0.0005499 0.0000
  6     -1.6543330830  -0.000002327469 0.00010264  0.00001400  0.0000617 0.0000
  7     -1.6543331030  -0.000000020053 0.00001314  0.00000177  0.0000246 0.0000
                 **** Energy Check signals convergence ****

               *****************************************************
               *                     SUCCESS                       *
               *           SCF CONVERGED AFTER   8 CYCLES          *
               *****************************************************

Setting up the final grid:

General Integration Accuracy     IntAcc      ...  4.670
Radial Grid Type                 RadialGrid  ... Gauss-Chebyshev
Angular Grid (max. acc.)         AngularGrid ... Lebedev-302
Angular grid pruning method      GridPruning ... 3 (G Style)
Weight generation scheme         WeightScheme... Becke
Basis function cutoff            BFCut       ...    1.0000e-11
Integration weight cutoff        WCut        ...    1.0000e-14
Grids for H and He will be reduced by one unit

# of grid points (after initial pruning)     ...  10182 (   0.0 sec)
# of grid points (after weights+screening)   ...  10066 (   0.0 sec)
nearest neighbour list constructed           ...    0.0 sec
Grid point re-assignment to atoms done       ...    0.0 sec
Grid point division into batches done        ...    0.0 sec
Reduced shell lists constructed in    0.0 sec

Total number of grid points                  ...    10066
Total number of batches                      ...      158
Average number of points per batch           ...       63
Average number of grid points per atom       ...     3355
Average number of shells per batch           ...     6.00 (66.67%)
Average number of basis functions per batch  ...     8.67 (57.78%)
Average number of large shells per batch     ...     5.19 (86.51%)
Average number of large basis fcns per batch ...     7.29 (84.07%)
Maximum spatial batch extension              ...  11.64, 15.43, 15.43 au
Average spatial batch extension              ...   0.92,  1.09,  1.02 au

Final grid set up in    0.0 sec
Final integration                            ... done (   0.0 sec)
Change in XC energy                          ...    -0.000725136
Integrated number of electrons               ...     3.000001207
Previous integrated no of electrons          ...     2.994387854
Total Energy       :           -1.65505824 Eh             -45.03642 eV
  Last Energy change         ...   -9.3040e-10  Tolerance :   1.0000e-08
  Last MAX-Density change    ...    2.8630e-06  Tolerance :   1.0000e-07
             **** THE GBW FILE WAS UPDATED (h3_constrained_opt_orca.gbw) ****
             **** DENSITY FILE WAS UPDATED (h3_constrained_opt_orca.scfp.tmp) ****
             **** ENERGY FILE WAS UPDATED (h3_constrained_opt_orca.en.tmp) ****
----------------------
UHF SPIN CONTAMINATION
----------------------

Warning: in a DFT calculation there is little theoretical justification to 
         calculate <S**2> as in Hartree-Fock theory. We will do it anyways
         but you should keep in mind that the values have only limited relevance

Expectation value of <S**2>     :     0.757608
Ideal value S*(S+1) for S=0.5   :     0.750000
Deviation                       :     0.007608

Total SCF time: 0 days 0 hours 0 min 1 sec 


-------------------------------------------------------------------------------
                          DFT DISPERSION CORRECTION                            
                                                                               
                              DFTD3 V3.1  Rev 1                                
                          USING Becke-Johnson damping                          
-------------------------------------------------------------------------------
-------------------------   ----------------
Dispersion correction           -0.000581358
-------------------------   ----------------


-------------------------   --------------------
FINAL SINGLE POINT ENERGY        -1.655639597379
-------------------------   --------------------



           ************************************************************
           *        Program running with 8 parallel MPI-processes     *
           *              working on a common directory               *
           ************************************************************
------------------------------------------------------------------------------
                         ORCA SCF GRADIENT CALCULATION
------------------------------------------------------------------------------

Gradient of the Kohn-Sham DFT energy:
Kohn-Sham wavefunction type      ... UKS
Hartree-Fock exchange scaling    ...    0.000
Number of operators              ...    2
Number of atoms                  ...    3
Basis set dimensions             ...   15
Integral neglect threshold       ... 2.5e-11
Integral primitive cutoff        ... 2.5e-12

Nuclear repulsion gradient       ... done
One Electron Gradient            ... done
Pre-screening matrix             ... done
RI-J gradient                    ... done
Exchange-correlation gradient    ... done
Dispersion correction            ... done

------------------
CARTESIAN GRADIENT
------------------

   1   H   :   -0.002964108    0.000000000   -0.000000000
   2   H   :   -0.000415941   -0.000000000   -0.000000000
   3   H   :    0.003380050   -0.000000000    0.000000000

Difference to translation invariance:
           :    0.0000000000    0.0000000000    0.0000000000

Norm of the cartesian gradient     ...    0.0045148292
RMS gradient                       ...    0.0015049431
MAX gradient                       ...    0.0033800498

-------
TIMINGS
-------

Total SCF gradient time            ...        0.311 sec

One electron gradient       ....       0.002 sec  (  0.5%)
Prescreening matrices       ....       0.000 sec  (  0.0%)
RI-J Coulomb gradient       ....       0.086 sec  ( 27.5%)
XC gradient                 ....       0.008 sec  (  2.6%)
------------------------------------------------------------------------------
                         ORCA GEOMETRY RELAXATION STEP
------------------------------------------------------------------------------

Reading the OPT-File                    .... done
Getting information on internals        .... done
Copying old internal coords+grads       .... done
Making the new internal coordinates     .... (new redundants).... done
Validating the new internal coordinates .... (new redundants).... done
Calculating the B-matrix                .... done
Calculating the G,G- and P matrices     .... done
Transforming gradient to internals      .... done
Projecting the internal gradient        .... done
Number of atoms                         ....   3
Number of internal coordinates          ....   4
Current Energy                          ....    -1.655639597 Eh
Current gradient norm                   ....     0.004514829 Eh/bohr
Maximum allowed component of the step   ....  0.300
Current trust radius                    ....  0.300
Updating the Hessian (BFGS)             .... done
Forming the augmented Hessian           .... done
Diagonalizing the augmented Hessian     .... done
Last element of RFO vector              ....  0.998919405
Lowest eigenvalues of augmented Hessian:
 -0.000157261  0.072648141  0.159918886  0.159918886
Length of the computed step             ....  0.046526308
The final length of the internal step   ....  0.046526308
Converting the step to cartesian space:
 Initial RMS(Int)=    0.0232631542
Transforming coordinates:
 Iter   0:  RMS(Cart)=    0.0126628572 RMS(Int)=    0.0232631542
 Iter   1:  RMS(Cart)=    0.0000000000 RMS(Int)=    0.0000000000
Imposing constraints:
 Iter   0:  RMS(Cart)=    0.0000000000 RMS(Int)=    0.0000000000
CONVERGED
done
Storing new coordinates                 .... done

                                .--------------------.
          ----------------------|Geometry convergence|-------------------------
          Item                value                   Tolerance       Converged
          ---------------------------------------------------------------------
          Energy change      -0.0011128502            0.0000300000      NO
          RMS gradient        0.0016900249            0.0005000000      NO
          MAX gradient        0.0033800498            0.0020000000      NO
          RMS step            0.0232631542            0.0070000000      NO
          MAX step            0.0465263084            0.0100000000      NO
          ........................................................
          Max(Bonds)      0.0246      Max(Angles)    0.00
          Max(Dihed)        0.00      Max(Improp)    0.00
          ---------------------------------------------------------------------

The optimization has not yet converged - more geometry cycles are needed


    ---------------------------------------------------------------------------
                         Redundant Internal Coordinates
                            (Angstroem and degrees)

        Definition                    Value    dE/dq     Step     New-Value
    ----------------------------------------------------------------------------
     1. B(H   1,H   0)                1.0000  0.002964  0.0000    1.0000 C 
     2. B(H   2,H   1)                0.9291  0.003380 -0.0246    0.9045   
     3. L(H   0,H   1,H   2, 1)       180.00  0.000000   -0.00    180.00   
     4. L(H   0,H   1,H   2, 2)       180.00 -0.000000    0.00    180.00   
    ----------------------------------------------------------------------------

         *************************************************************
         *                GEOMETRY OPTIMIZATION CYCLE   3            *
         *************************************************************
---------------------------------
CARTESIAN COORDINATES (ANGSTROEM)
---------------------------------
  H     -0.168152   -0.000000   -0.000000
  H      0.831848    0.000000    0.000000
  H      1.736303   -0.000000   -0.000000

----------------------------
CARTESIAN COORDINATES (A.U.)
----------------------------
  NO LB      ZA    FRAG     MASS         X           Y           Z
   0 H     1.0000    0     1.008   -0.317760   -0.000000   -0.000000
   1 H     1.0000    0     1.008    1.571966    0.000000    0.000000
   2 H     1.0000    0     1.008    3.281138   -0.000000   -0.000000

--------------------------------
INTERNAL COORDINATES (ANGSTROEM)
--------------------------------
 H      0   0   0     0.000000000000     0.00000000     0.00000000
 H      1   0   0     0.999999997925     0.00000000     0.00000000
 H      2   1   0     0.904454809064   180.00000000     0.00000000

---------------------------
INTERNAL COORDINATES (A.U.)
---------------------------
 H      0   0   0     0.000000000000     0.00000000     0.00000000
 H      1   0   0     1.889726130000     0.00000000     0.00000000
 H      2   1   0     1.709171889639   180.00000000     0.00000000



           ************************************************************
           *        Program running with 8 parallel MPI-processes     *
           *              working on a common directory               *
           ************************************************************
 One Electron integrals                  ... done
 Pre-screening matrix                    ... done


           ************************************************************
           *        Program running with 8 parallel MPI-processes     *
           *              working on a common directory               *
           ************************************************************

Diagonalization of the overlap matrix:
Smallest eigenvalue                        ... 2.936e-02
Time for diagonalization                   ...    0.000 sec
Threshold for overlap eigenvalues          ... 1.000e-08
Number of eigenvalues below threshold      ... 0
Time for construction of square roots      ...    0.000 sec
Total time needed                          ...    0.001 sec

-------------------
DFT GRID GENERATION
-------------------

General Integration Accuracy     IntAcc      ...  4.340
Radial Grid Type                 RadialGrid  ... Gauss-Chebyshev
Angular Grid (max. acc.)         AngularGrid ... Lebedev-110
Angular grid pruning method      GridPruning ... 3 (G Style)
Weight generation scheme         WeightScheme... Becke
Basis function cutoff            BFCut       ...    1.0000e-11
Integration weight cutoff        WCut        ...    1.0000e-14
Grids for H and He will be reduced by one unit

# of grid points (after initial pruning)     ...   2382 (   0.0 sec)
# of grid points (after weights+screening)   ...   2336 (   0.0 sec)
nearest neighbour list constructed           ...    0.0 sec
Grid point re-assignment to atoms done       ...    0.0 sec
Grid point division into batches done        ...    0.0 sec
Reduced shell lists constructed in    0.0 sec

Total number of grid points                  ...     2336
Total number of batches                      ...       39
Average number of points per batch           ...       59
Average number of grid points per atom       ...      779
Average number of shells per batch           ...     7.33 (81.48%)
Average number of basis functions per batch  ...    12.00 (80.00%)
Average number of large shells per batch     ...     7.00 (95.45%)
Average number of large basis fcns per batch ...    11.33 (94.44%)
Maximum spatial batch extension              ...  12.23, 21.59, 21.59 au
Average spatial batch extension              ...   1.12,  2.11,  2.36 au

Time for grid setup =    0.008 sec

--------------
SCF ITERATIONS
--------------
ITER       Energy         Delta-E        Max-DP      RMS-DP      [F,P]     Damp
               ***  Starting incremental Fock matrix formation  ***
  0     -1.6542895777   0.000000000000 0.00121373  0.00011966  0.0051886 0.7000
  1     -1.6543115020  -0.000021924314 0.00116615  0.00012199  0.0039346 0.7000
                               ***Turning on DIIS***
  2     -1.6543287337  -0.000017231694 0.00324062  0.00036572  0.0029202 0.0000
  3     -1.6543701489  -0.000041415185 0.00223693  0.00024380  0.0008065 0.0000
  4     -1.6543730067  -0.000002857826 0.00038737  0.00003729  0.0003349 0.0000
  5     -1.6543734274  -0.000000420758 0.00026610  0.00003200  0.0002004 0.0000
  6     -1.6543735067  -0.000000079283 0.00002910  0.00000432  0.0000349 0.0000
                 **** Energy Check signals convergence ****

               *****************************************************
               *                     SUCCESS                       *
               *           SCF CONVERGED AFTER   7 CYCLES          *
               *****************************************************

Setting up the final grid:

General Integration Accuracy     IntAcc      ...  4.670
Radial Grid Type                 RadialGrid  ... Gauss-Chebyshev
Angular Grid (max. acc.)         AngularGrid ... Lebedev-302
Angular grid pruning method      GridPruning ... 3 (G Style)
Weight generation scheme         WeightScheme... Becke
Basis function cutoff            BFCut       ...    1.0000e-11
Integration weight cutoff        WCut        ...    1.0000e-14
Grids for H and He will be reduced by one unit

# of grid points (after initial pruning)     ...  10182 (   0.0 sec)
# of grid points (after weights+screening)   ...  10064 (   0.0 sec)
nearest neighbour list constructed           ...    0.0 sec
Grid point re-assignment to atoms done       ...    0.0 sec
Grid point division into batches done        ...    0.0 sec
Reduced shell lists constructed in    0.0 sec

Total number of grid points                  ...    10064
Total number of batches                      ...      158
Average number of points per batch           ...       63
Average number of grid points per atom       ...     3355
Average number of shells per batch           ...     6.10 (67.72%)
Average number of basis functions per batch  ...     9.05 (60.32%)
Average number of large shells per batch     ...     5.19 (85.16%)
Average number of large basis fcns per batch ...     7.29 (80.53%)
Maximum spatial batch extension              ...  11.59, 15.43, 15.43 au
Average spatial batch extension              ...   0.92,  1.08,  1.03 au

Final grid set up in    0.0 sec
Final integration                            ... done (   0.0 sec)
Change in XC energy                          ...    -0.000727744
Integrated number of electrons               ...     3.000001178
Previous integrated no of electrons          ...     2.994552081
Total Energy       :           -1.65510125 Eh             -45.03759 eV
  Last Energy change         ...   -3.1793e-09  Tolerance :   1.0000e-08
  Last MAX-Density change    ...    6.1278e-06  Tolerance :   1.0000e-07
             **** THE GBW FILE WAS UPDATED (h3_constrained_opt_orca.gbw) ****
             **** DENSITY FILE WAS UPDATED (h3_constrained_opt_orca.scfp.tmp) ****
             **** ENERGY FILE WAS UPDATED (h3_constrained_opt_orca.en.tmp) ****
----------------------
UHF SPIN CONTAMINATION
----------------------

Warning: in a DFT calculation there is little theoretical justification to 
         calculate <S**2> as in Hartree-Fock theory. We will do it anyways
         but you should keep in mind that the values have only limited relevance

Expectation value of <S**2>     :     0.757123
Ideal value S*(S+1) for S=0.5   :     0.750000
Deviation                       :     0.007123

Total SCF time: 0 days 0 hours 0 min 0 sec 


-------------------------------------------------------------------------------
                          DFT DISPERSION CORRECTION                            
                                                                               
                              DFTD3 V3.1  Rev 1                                
                          USING Becke-Johnson damping                          
-------------------------------------------------------------------------------
-------------------------   ----------------
Dispersion correction           -0.000551767
-------------------------   ----------------


-------------------------   --------------------
FINAL SINGLE POINT ENERGY        -1.655653020757
-------------------------   --------------------



           ************************************************************
           *        Program running with 8 parallel MPI-processes     *
           *              working on a common directory               *
           ************************************************************
------------------------------------------------------------------------------
                         ORCA SCF GRADIENT CALCULATION
------------------------------------------------------------------------------

Gradient of the Kohn-Sham DFT energy:
Kohn-Sham wavefunction type      ... UKS
Hartree-Fock exchange scaling    ...    0.000
Number of operators              ...    2
Number of atoms                  ...    3
Basis set dimensions             ...   15
Integral neglect threshold       ... 2.5e-11
Integral primitive cutoff        ... 2.5e-12

Nuclear repulsion gradient       ... done
One Electron Gradient            ... done
Pre-screening matrix             ... done
RI-J gradient                    ... done
Exchange-correlation gradient    ... done
Dispersion correction            ... done

------------------
CARTESIAN GRADIENT
------------------

   1   H   :    0.000611885   -0.000000000   -0.000000000
   2   H   :    0.001293805    0.000000000   -0.000000000
   3   H   :   -0.001905690    0.000000000    0.000000000

Difference to translation invariance:
           :    0.0000000000   -0.0000000000    0.0000000000

Norm of the cartesian gradient     ...    0.0023832733
RMS gradient                       ...    0.0007944244
MAX gradient                       ...    0.0019056905

-------
TIMINGS
-------

Total SCF gradient time            ...        0.315 sec

One electron gradient       ....       0.002 sec  (  0.5%)
Prescreening matrices       ....       0.000 sec  (  0.0%)
RI-J Coulomb gradient       ....       0.086 sec  ( 27.2%)
XC gradient                 ....       0.008 sec  (  2.6%)
------------------------------------------------------------------------------
                         ORCA GEOMETRY RELAXATION STEP
------------------------------------------------------------------------------

Reading the OPT-File                    .... done
Getting information on internals        .... done
Copying old internal coords+grads       .... done
Making the new internal coordinates     .... (new redundants).... done
Validating the new internal coordinates .... (new redundants).... done
Calculating the B-matrix                .... done
Calculating the G,G- and P matrices     .... done
Transforming gradient to internals      .... done
Projecting the internal gradient        .... done
Number of atoms                         ....   3
Number of internal coordinates          ....   4
Current Energy                          ....    -1.655653021 Eh
Current gradient norm                   ....     0.002383273 Eh/bohr
Maximum allowed component of the step   ....  0.300
Current trust radius                    ....  0.300
Updating the Hessian (BFGS)             .... done
Forming the augmented Hessian           .... done
Diagonalizing the augmented Hessian     .... done
Last element of RFO vector              ....  0.999859420
Lowest eigenvalues of augmented Hessian:
 -0.000031958  0.113639516  0.159918886  0.159918886
Length of the computed step             ....  0.016769611
The final length of the internal step   ....  0.016769611
Converting the step to cartesian space:
 Initial RMS(Int)=    0.0083848055
Transforming coordinates:
 Iter   0:  RMS(Cart)=    0.0045641100 RMS(Int)=    0.0083848055
 Iter   1:  RMS(Cart)=    0.0000000057 RMS(Int)=    0.0000000316
Imposing constraints:
 Iter   0:  RMS(Cart)=    0.0000000000 RMS(Int)=    0.0000000000
CONVERGED
done
Storing new coordinates                 .... done

                                .--------------------.
          ----------------------|Geometry convergence|-------------------------
          Item                value                   Tolerance       Converged
          ---------------------------------------------------------------------
          Energy change      -0.0000134234            0.0000300000      YES
          RMS gradient        0.0009528452            0.0005000000      NO
          MAX gradient        0.0019056905            0.0020000000      YES
          RMS step            0.0083848055            0.0070000000      NO
          MAX step            0.0167696110            0.0100000000      NO
          ........................................................
          Max(Bonds)      0.0089      Max(Angles)    0.00
          Max(Dihed)        0.00      Max(Improp)    0.00
          ---------------------------------------------------------------------

The optimization has not yet converged - more geometry cycles are needed


    ---------------------------------------------------------------------------
                         Redundant Internal Coordinates
                            (Angstroem and degrees)

        Definition                    Value    dE/dq     Step     New-Value
    ----------------------------------------------------------------------------
     1. B(H   1,H   0)                1.0000 -0.000612 -0.0000    1.0000 C 
     2. B(H   2,H   1)                0.9045 -0.001906  0.0089    0.9133   
     3. L(H   0,H   1,H   2, 1)       180.00  0.000000   -0.00    180.00   
     4. L(H   0,H   1,H   2, 2)       180.00  0.000000    0.00    180.00   
    ----------------------------------------------------------------------------

         *************************************************************
         *                GEOMETRY OPTIMIZATION CYCLE   4            *
         *************************************************************
---------------------------------
CARTESIAN COORDINATES (ANGSTROEM)
---------------------------------
  H     -0.171110    0.000000    0.000000
  H      0.828890   -0.000000   -0.000000
  H      1.742219    0.000000    0.000000

----------------------------
CARTESIAN COORDINATES (A.U.)
----------------------------
  NO LB      ZA    FRAG     MASS         X           Y           Z
   0 H     1.0000    0     1.008   -0.323350    0.000000    0.000000
   1 H     1.0000    0     1.008    1.566376   -0.000000   -0.000000
   2 H     1.0000    0     1.008    3.292317    0.000000    0.000000

--------------------------------
INTERNAL COORDINATES (ANGSTROEM)
--------------------------------
 H      0   0   0     0.000000000000     0.00000000     0.00000000
 H      1   0   0     0.999999997925     0.00000000     0.00000000
 H      2   1   0     0.913328905016   180.00000000     0.00000000

---------------------------
INTERNAL COORDINATES (A.U.)
---------------------------
 H      0   0   0     0.000000000000     0.00000000     0.00000000
 H      1   0   0     1.889726130000     0.00000000     0.00000000
 H      2   1   0     1.725941500674   180.00000000     0.00000000



           ************************************************************
           *        Program running with 8 parallel MPI-processes     *
           *              working on a common directory               *
           ************************************************************
 One Electron integrals                  ... done
 Pre-screening matrix                    ... done


           ************************************************************
           *        Program running with 8 parallel MPI-processes     *
           *              working on a common directory               *
           ************************************************************

Diagonalization of the overlap matrix:
Smallest eigenvalue                        ... 2.983e-02
Time for diagonalization                   ...    0.000 sec
Threshold for overlap eigenvalues          ... 1.000e-08
Number of eigenvalues below threshold      ... 0
Time for construction of square roots      ...    0.000 sec
Total time needed                          ...    0.001 sec

-------------------
DFT GRID GENERATION
-------------------

General Integration Accuracy     IntAcc      ...  4.340
Radial Grid Type                 RadialGrid  ... Gauss-Chebyshev
Angular Grid (max. acc.)         AngularGrid ... Lebedev-110
Angular grid pruning method      GridPruning ... 3 (G Style)
Weight generation scheme         WeightScheme... Becke
Basis function cutoff            BFCut       ...    1.0000e-11
Integration weight cutoff        WCut        ...    1.0000e-14
Grids for H and He will be reduced by one unit

# of grid points (after initial pruning)     ...   2382 (   0.0 sec)
# of grid points (after weights+screening)   ...   2336 (   0.0 sec)
nearest neighbour list constructed           ...    0.0 sec
Grid point re-assignment to atoms done       ...    0.0 sec
Grid point division into batches done        ...    0.0 sec
Reduced shell lists constructed in    0.0 sec

Total number of grid points                  ...     2336
Total number of batches                      ...       39
Average number of points per batch           ...       59
Average number of grid points per atom       ...      779
Average number of shells per batch           ...     7.33 (81.48%)
Average number of basis functions per batch  ...    12.00 (80.00%)
Average number of large shells per batch     ...     7.00 (95.45%)
Average number of large basis fcns per batch ...    11.33 (94.44%)
Maximum spatial batch extension              ...  12.23, 21.59, 21.59 au
Average spatial batch extension              ...   1.12,  2.11,  2.36 au

Time for grid setup =    0.007 sec

--------------
SCF ITERATIONS
--------------
ITER       Energy         Delta-E        Max-DP      RMS-DP      [F,P]     Damp
               ***  Starting incremental Fock matrix formation  ***
  0     -1.6543737313   0.000000000000 0.00043636  0.00004344  0.0018778 0.7000
  1     -1.6543765892  -0.000002857946 0.00041981  0.00004418  0.0014240 0.7000
                               ***Turning on DIIS***
  2     -1.6543788331  -0.000002243896 0.00117570  0.00013201  0.0010494 0.0000
  3     -1.6543842211  -0.000005387958 0.00080530  0.00008717  0.0002879 0.0000
  4     -1.6543845910  -0.000000369902 0.00013868  0.00001346  0.0001204 0.0000
  5     -1.6543846457  -0.000000054779 0.00009652  0.00001167  0.0000728 0.0000
  6     -1.6543846564  -0.000000010615 0.00001030  0.00000156  0.0000128 0.0000
                 **** Energy Check signals convergence ****

               *****************************************************
               *                     SUCCESS                       *
               *           SCF CONVERGED AFTER   7 CYCLES          *
               *****************************************************

Setting up the final grid:

General Integration Accuracy     IntAcc      ...  4.670
Radial Grid Type                 RadialGrid  ... Gauss-Chebyshev
Angular Grid (max. acc.)         AngularGrid ... Lebedev-302
Angular grid pruning method      GridPruning ... 3 (G Style)
Weight generation scheme         WeightScheme... Becke
Basis function cutoff            BFCut       ...    1.0000e-11
Integration weight cutoff        WCut        ...    1.0000e-14
Grids for H and He will be reduced by one unit

# of grid points (after initial pruning)     ...  10182 (   0.0 sec)
# of grid points (after weights+screening)   ...  10064 (   0.0 sec)
nearest neighbour list constructed           ...    0.0 sec
Grid point re-assignment to atoms done       ...    0.0 sec
Grid point division into batches done        ...    0.0 sec
Reduced shell lists constructed in    0.0 sec

Total number of grid points                  ...    10064
Total number of batches                      ...      158
Average number of points per batch           ...       63
Average number of grid points per atom       ...     3355
Average number of shells per batch           ...     5.95 (66.14%)
Average number of basis functions per batch  ...     8.62 (57.46%)
Average number of large shells per batch     ...     5.19 (87.20%)
Average number of large basis fcns per batch ...     7.29 (84.53%)
Maximum spatial batch extension              ...  11.61, 15.43, 15.43 au
Average spatial batch extension              ...   0.92,  1.08,  1.02 au

Final grid set up in    0.0 sec
Final integration                            ... done (   0.0 sec)
Change in XC energy                          ...    -0.000727931
Integrated number of electrons               ...     3.000001179
Previous integrated no of electrons          ...     2.994488321
Total Energy       :           -1.65511259 Eh             -45.03790 eV
  Last Energy change         ...   -4.2440e-10  Tolerance :   1.0000e-08
  Last MAX-Density change    ...    2.2764e-06  Tolerance :   1.0000e-07
             **** THE GBW FILE WAS UPDATED (h3_constrained_opt_orca.gbw) ****
             **** DENSITY FILE WAS UPDATED (h3_constrained_opt_orca.scfp.tmp) ****
             **** ENERGY FILE WAS UPDATED (h3_constrained_opt_orca.en.tmp) ****
----------------------
UHF SPIN CONTAMINATION
----------------------

Warning: in a DFT calculation there is little theoretical justification to 
         calculate <S**2> as in Hartree-Fock theory. We will do it anyways
         but you should keep in mind that the values have only limited relevance

Expectation value of <S**2>     :     0.757298
Ideal value S*(S+1) for S=0.5   :     0.750000
Deviation                       :     0.007298

Total SCF time: 0 days 0 hours 0 min 0 sec 


-------------------------------------------------------------------------------
                          DFT DISPERSION CORRECTION                            
                                                                               
                              DFTD3 V3.1  Rev 1                                
                          USING Becke-Johnson damping                          
-------------------------------------------------------------------------------
-------------------------   ----------------
Dispersion correction           -0.000564222
-------------------------   ----------------


-------------------------   --------------------
FINAL SINGLE POINT ENERGY        -1.655676809199
-------------------------   --------------------



           ************************************************************
           *        Program running with 8 parallel MPI-processes     *
           *              working on a common directory               *
           ************************************************************
------------------------------------------------------------------------------
                         ORCA SCF GRADIENT CALCULATION
------------------------------------------------------------------------------

Gradient of the Kohn-Sham DFT energy:
Kohn-Sham wavefunction type      ... UKS
Hartree-Fock exchange scaling    ...    0.000
Number of operators              ...    2
Number of atoms                  ...    3
Basis set dimensions             ...   15
Integral neglect threshold       ... 2.5e-11
Integral primitive cutoff        ... 2.5e-12

Nuclear repulsion gradient       ... done
One Electron Gradient            ... done
Pre-screening matrix             ... done
RI-J gradient                    ... done
Exchange-correlation gradient    ... done
Dispersion correction            ... done

------------------
CARTESIAN GRADIENT
------------------

   1   H   :   -0.000675804    0.000000000    0.000000000
   2   H   :    0.000542862   -0.000000000   -0.000000000
   3   H   :    0.000132941    0.000000000    0.000000000

Difference to translation invariance:
           :   -0.0000000000    0.0000000000   -0.0000000000

Norm of the cartesian gradient     ...    0.0008769740
RMS gradient                       ...    0.0002923247
MAX gradient                       ...    0.0006758036

-------
TIMINGS
-------

Total SCF gradient time            ...        0.350 sec

One electron gradient       ....       0.000 sec  (  0.0%)
Prescreening matrices       ....       0.000 sec  (  0.0%)
RI-J Coulomb gradient       ....       0.085 sec  ( 24.4%)
XC gradient                 ....       0.012 sec  (  3.4%)
------------------------------------------------------------------------------
                         ORCA GEOMETRY RELAXATION STEP
------------------------------------------------------------------------------

Reading the OPT-File                    .... done
Getting information on internals        .... done
Copying old internal coords+grads       .... done
Making the new internal coordinates     .... (new redundants).... done
Validating the new internal coordinates .... (new redundants).... done
Calculating the B-matrix                .... done
Calculating the G,G- and P matrices     .... done
Transforming gradient to internals      .... done
Projecting the internal gradient        .... done
Number of atoms                         ....   3
Number of internal coordinates          ....   4
Current Energy                          ....    -1.655676809 Eh
Current gradient norm                   ....     0.000876974 Eh/bohr
Maximum allowed component of the step   ....  0.300
Current trust radius                    ....  0.300
Updating the Hessian (BFGS)             .... done
Forming the augmented Hessian           .... done
Diagonalizing the augmented Hessian     .... done
Last element of RFO vector              ....  0.999999402
Lowest eigenvalues of augmented Hessian:
 -0.000000145  0.121567168  0.159918886  0.159918886
Length of the computed step             ....  0.001093562
The final length of the internal step   ....  0.001093562
Converting the step to cartesian space:
 Initial RMS(Int)=    0.0005467809
Transforming coordinates:
 Iter   0:  RMS(Cart)=    0.0002976298 RMS(Int)=    0.0005467809
 Iter   1:  RMS(Cart)=    0.0000000030 RMS(Int)=    0.0000000000
Imposing constraints:
 Iter   0:  RMS(Cart)=    0.0000000000 RMS(Int)=    0.0000000000
CONVERGED
done
Storing new coordinates                 .... done

                                .--------------------.
          ----------------------|Geometry convergence|-------------------------
          Item                value                   Tolerance       Converged
          ---------------------------------------------------------------------
          Energy change      -0.0000237884            0.0000300000      YES
[...]
   PBE kappa parameter   XKappa         ....  0.804000
   PBE mue parameter    XMuePBE         ....  0.219520
 Correlation Functional Correlation     .... PBE
   PBE beta parameter  CBetaPBE         ....  0.066725
 LDA part of GGA corr.  LDAOpt          .... PW91-LDA
 Gradients option       PostSCFGGA      .... off
   Density functional embedding theory  .... OFF
   NL short-range parameter             ....  6.400000
 RI-approximation to the Coulomb term is turned on
   Number of auxiliary basis functions  .... 33


General Settings:
 Integral files         IntName         .... h3_constrained_opt_orca
 Hartree-Fock type      HFTyp           .... UHF
 Total Charge           Charge          ....    0
 Multiplicity           Mult            ....    2
 Number of Electrons    NEL             ....    3
 Basis Dimension        Dim             ....   15
 Nuclear Repulsion      ENuc            ....      1.3855962307 Eh

Convergence Acceleration:
 DIIS                   CNVDIIS         .... on
   Start iteration      DIISMaxIt       ....    12
   Startup error        DIISStart       ....  0.200000
   # of expansion vecs  DIISMaxEq       ....     5
   Bias factor          DIISBfac        ....   1.050
   Max. coefficient     DIISMaxC        ....  10.000
 Newton-Raphson         CNVNR           .... off
 SOSCF                  CNVSOSCF        .... off
 Level Shifting         CNVShift        .... on
   Level shift para.    LevelShift      ....    0.2500
   Turn off err/grad.   ShiftErr        ....    0.0010
 Zerner damping         CNVZerner       .... off
 Static damping         CNVDamp         .... on
   Fraction old density DampFac         ....    0.7000
   Max. Damping (<1)    DampMax         ....    0.9800
   Min. Damping (>=0)   DampMin         ....    0.0000
   Turn off err/grad.   DampErr         ....    0.1000
 Fernandez-Rico         CNVRico         .... off

SCF Procedure:
 Maximum # iterations   MaxIter         ....   250
 SCF integral mode      SCFMode         .... Direct
   Integral package                     .... LIBINT
 Reset frequency        DirectResetFreq ....    20
 Integral Threshold     Thresh          ....  2.500e-11 Eh
 Primitive CutOff       TCut            ....  2.500e-12 Eh

Convergence Tolerance:
 Convergence Check Mode ConvCheckMode   .... Total+1el-Energy
 Convergence forced     ConvForced      .... 0
 Energy Change          TolE            ....  1.000e-08 Eh
 1-El. energy change                    ....  1.000e-05 Eh
 DIIS Error             TolErr          ....  5.000e-07


Diagonalization of the overlap matrix:
Smallest eigenvalue                        ... 2.980e-02
Time for diagonalization                   ...    0.001 sec
Threshold for overlap eigenvalues          ... 1.000e-08
Number of eigenvalues below threshold      ... 0
Time for construction of square roots      ...    0.001 sec
Total time needed                          ...    0.001 sec

---------------------
INITIAL GUESS: MOREAD
---------------------
Guess MOs are being read from file: h3_constrained_opt_orca.gbw
Input Geometry matches current geometry (good)
Input basis set matches current basis set (good)
MOs were renormalized
MOs were reorthogonalized (Cholesky)
                      ------------------
                      INITIAL GUESS DONE (   0.0 sec)
                      ------------------
-------------------
DFT GRID GENERATION
-------------------

General Integration Accuracy     IntAcc      ...  4.340
Radial Grid Type                 RadialGrid  ... Gauss-Chebyshev
Angular Grid (max. acc.)         AngularGrid ... Lebedev-110
Angular grid pruning method      GridPruning ... 3 (G Style)
Weight generation scheme         WeightScheme... Becke
Basis function cutoff            BFCut       ...    1.0000e-11
Integration weight cutoff        WCut        ...    1.0000e-14
Grids for H and He will be reduced by one unit

# of grid points (after initial pruning)     ...   2382 (   0.0 sec)
# of grid points (after weights+screening)   ...   2336 (   0.0 sec)
nearest neighbour list constructed           ...    0.0 sec
Grid point re-assignment to atoms done       ...    0.0 sec
Grid point division into batches done        ...    0.0 sec
Reduced shell lists constructed in    0.0 sec

Total number of grid points                  ...     2336
Total number of batches                      ...       39
Average number of points per batch           ...       59
Average number of grid points per atom       ...      779
Average number of shells per batch           ...     7.33 (81.48%)
Average number of basis functions per batch  ...    12.00 (80.00%)
Average number of large shells per batch     ...     7.00 (95.45%)
Average number of large basis fcns per batch ...    11.33 (94.44%)
Maximum spatial batch extension              ...  12.23, 21.59, 21.59 au
Average spatial batch extension              ...   1.12,  2.11,  2.36 au

Time for grid setup =    0.007 sec

--------------
SCF ITERATIONS
--------------
ITER       Energy         Delta-E        Max-DP      RMS-DP      [F,P]     Damp
               ***  Starting incremental Fock matrix formation  ***
  0     -1.6543848101   0.000000000000 0.00002844  0.00000281  0.0001216 0.7000
  1     -1.6543848221  -0.000000011974 0.00002736  0.00000287  0.0000923 0.7000
                               ***Turning on DIIS***
  2     -1.6543848315  -0.000000009402 0.00010487  0.00001073  0.0000680 0.0000
  3     -1.6543848548  -0.000000023227 0.00002880  0.00000328  0.0000196 0.0000
                 **** Energy Check signals convergence ****

               *****************************************************
               *                     SUCCESS                       *
               *           SCF CONVERGED AFTER   4 CYCLES          *
               *****************************************************

Setting up the final grid:

General Integration Accuracy     IntAcc      ...  4.670
Radial Grid Type                 RadialGrid  ... Gauss-Chebyshev
Angular Grid (max. acc.)         AngularGrid ... Lebedev-302
Angular grid pruning method      GridPruning ... 3 (G Style)
Weight generation scheme         WeightScheme... Becke
Basis function cutoff            BFCut       ...    1.0000e-11
Integration weight cutoff        WCut        ...    1.0000e-14
Grids for H and He will be reduced by one unit

# of grid points (after initial pruning)     ...  10182 (   0.0 sec)
# of grid points (after weights+screening)   ...  10064 (   0.0 sec)
nearest neighbour list constructed           ...    0.0 sec
Grid point re-assignment to atoms done       ...    0.0 sec
Grid point division into batches done        ...    0.0 sec
Reduced shell lists constructed in    0.0 sec

Total number of grid points                  ...    10064
Total number of batches                      ...      158
Average number of points per batch           ...       63
Average number of grid points per atom       ...     3355
Average number of shells per batch           ...     6.14 (68.25%)
Average number of basis functions per batch  ...     9.19 (61.27%)
Average number of large shells per batch     ...     5.19 (84.50%)
Average number of large basis fcns per batch ...     7.29 (79.27%)
Maximum spatial batch extension              ...  11.61, 15.43, 15.43 au
Average spatial batch extension              ...   0.92,  1.08,  1.02 au

Final grid set up in    0.0 sec
Final integration                            ... done (   0.0 sec)
Change in XC energy                          ...    -0.000727966
Integrated number of electrons               ...     3.000001179
Previous integrated no of electrons          ...     2.994492257

----------------
TOTAL SCF ENERGY
----------------

Total Energy       :           -1.65511282 Eh             -45.03791 eV

Components:
Nuclear Repulsion  :            1.38559623 Eh              37.70399 eV
Electronic Energy  :           -3.04070905 Eh             -82.74190 eV
One Electron Energy:           -4.31144974 Eh            -117.32051 eV
Two Electron Energy:            1.27074069 Eh              34.57861 eV

Virial components:
Potential Energy   :           -3.22790787 Eh             -87.83584 eV
Kinetic Energy     :            1.57279505 Eh              42.79793 eV
Virial Ratio       :            2.05233852


DFT components:
N(Alpha)           :        2.000001033725 electrons
N(Beta)            :        1.000000145340 electrons
N(Total)           :        3.000001179065 electrons
E(X)               :       -0.926702318764 Eh       
E(C)               :       -0.062530076472 Eh       
E(XC)              :       -0.989232395236 Eh       
DFET-embed. en.    :        0.000000000000 Eh       

---------------
SCF CONVERGENCE
---------------

  Last Energy change         ...   -9.3341e-10  Tolerance :   1.0000e-08
  Last MAX-Density change    ...    8.0032e-06  Tolerance :   1.0000e-07
  Last RMS-Density change    ...    7.8366e-07  Tolerance :   5.0000e-09
  Last DIIS Error            ...    7.0157e-06  Tolerance :   5.0000e-07

             **** THE GBW FILE WAS UPDATED (h3_constrained_opt_orca.gbw) ****
             **** DENSITY FILE WAS UPDATED (h3_constrained_opt_orca.scfp.tmp) ****
             **** ENERGY FILE WAS UPDATED (h3_constrained_opt_orca.en.tmp) ****
----------------------
UHF SPIN CONTAMINATION
----------------------

Warning: in a DFT calculation there is little theoretical justification to 
         calculate <S**2> as in Hartree-Fock theory. We will do it anyways
         but you should keep in mind that the values have only limited relevance

Expectation value of <S**2>     :     0.757288
Ideal value S*(S+1) for S=0.5   :     0.750000
Deviation                       :     0.007288

----------------
ORBITAL ENERGIES
----------------
                 SPIN UP ORBITALS
  NO   OCC          E(Eh)            E(eV) 
   0   1.0000      -0.442241       -12.0340 
   1   1.0000      -0.219082        -5.9615 
   2   0.0000       0.084025         2.2864 
   3   0.0000       0.383635        10.4392 
   4   0.0000       0.391875        10.6635 
   5   0.0000       0.633116        17.2280 
   6   0.0000       1.000228        27.2176 
   7   0.0000       1.000228        27.2176 
   8   0.0000       1.306622        35.5550 
   9   0.0000       1.306622        35.5550 
  10   0.0000       1.427989        38.8575 
  11   0.0000       1.910799        51.9955 
  12   0.0000       1.910799        51.9955 
  13   0.0000       2.261690        61.5437 
  14   0.0000       3.396513        92.4238 

                 SPIN DOWN ORBITALS
  NO   OCC          E(Eh)            E(eV) 
   0   1.0000      -0.401685       -10.9304 
   1   0.0000      -0.124876        -3.3981 
   2   0.0000       0.129734         3.5302 
   3   0.0000       0.418082        11.3766 
   4   0.0000       0.462238        12.5781 
   5   0.0000       0.686134        18.6707 
   6   0.0000       1.037977        28.2448 
   7   0.0000       1.037977        28.2448 
   8   0.0000       1.410288        38.3759 
   9   0.0000       1.410288        38.3759 
  10   0.0000       1.514301        41.2062 
  11   0.0000       1.961965        53.3878 
  12   0.0000       1.961965        53.3878 
  13   0.0000       2.345975        63.8372 
  14   0.0000       3.453173        93.9656 

                    ********************************
                    * MULLIKEN POPULATION ANALYSIS *
                    ********************************

--------------------------------------------
MULLIKEN ATOMIC CHARGES AND SPIN POPULATIONS
--------------------------------------------
   0 H :    0.002736    0.638039
   1 H :   -0.014736   -0.142563
   2 H :    0.012000    0.504524
Sum of atomic charges         :   -0.0000000
Sum of atomic spin populations:    1.0000000

-----------------------------------------------------
MULLIKEN REDUCED ORBITAL CHARGES AND SPIN POPULATIONS
-----------------------------------------------------
CHARGE
  0 H s       :     0.989817  s :     0.989817
      pz      :     0.000000  p :     0.007447
      px      :     0.007447
      py      :     0.000000
  1 H s       :     0.999261  s :     0.999261
      pz      :     0.000000  p :     0.015476
      px      :     0.015476
      py      :     0.000000
  2 H s       :     0.979534  s :     0.979534
      pz      :     0.000000  p :     0.008466
      px      :     0.008466
      py      :     0.000000

SPIN
  0 H s       :     0.638873  s :     0.638873
      pz      :     0.000000  p :    -0.000833
      px      :    -0.000833
      py      :     0.000000
  1 H s       :    -0.158035  s :    -0.158035
      pz      :    -0.000000  p :     0.015473
      px      :     0.015473
      py      :    -0.000000
  2 H s       :     0.506047  s :     0.506047
      pz      :     0.000000  p :    -0.001523
      px      :    -0.001523
      py      :     0.000000


                     *******************************
                     * LOEWDIN POPULATION ANALYSIS *
                     *******************************

-------------------------------------------
LOEWDIN ATOMIC CHARGES AND SPIN POPULATIONS
-------------------------------------------
   0 H :    0.001865    0.550888
   1 H :   -0.006916    0.028402
   2 H :    0.005051    0.420711

----------------------------------------------------
LOEWDIN REDUCED ORBITAL CHARGES AND SPIN POPULATIONS
----------------------------------------------------
CHARGE
  0 H s       :     0.969948  s :     0.969948
      pz      :     0.000000  p :     0.028187
      px      :     0.028187
      py      :     0.000000
  1 H s       :     0.912889  s :     0.912889
      pz      :     0.000000  p :     0.094028
      px      :     0.094028
      py      :     0.000000
  2 H s       :     0.964725  s :     0.964725
      pz      :     0.000000  p :     0.030223
      px      :     0.030223
      py      :     0.000000

SPIN
  0 H s       :     0.550817  s :     0.550817
      pz      :    -0.000000  p :     0.000071
      px      :     0.000071
      py      :    -0.000000
  1 H s       :    -0.065217  s :    -0.065217
      pz      :     0.000000  p :     0.093619
      px      :     0.093619
      py      :     0.000000
  2 H s       :     0.422371  s :     0.422371
      pz      :    -0.000000  p :    -0.001661
      px      :    -0.001661
      py      :    -0.000000


                      *****************************
                      * MAYER POPULATION ANALYSIS *
                      *****************************

  NA   - Mulliken gross atomic population
  ZA   - Total nuclear charge
  QA   - Mulliken gross atomic charge
  VA   - Mayer's total valence
  BVA  - Mayer's bonded valence
  FA   - Mayer's free valence

  ATOM       NA         ZA         QA         VA         BVA        FA
  0 H      0.9973     1.0000     0.0027     0.9508     0.5403     0.4105
  1 H      1.0147     1.0000    -0.0147     1.0285     1.0049     0.0236
  2 H      0.9880     1.0000     0.0120     0.9512     0.6951     0.2560

  Mayer bond orders larger than 0.1
B(  0-H ,  1-H ) :   0.4250 B(  0-H ,  2-H ) :   0.1153 B(  1-H ,  2-H ) :   0.5799 


-------
TIMINGS
-------

Total SCF time: 0 days 0 hours 0 min 0 sec 

Total time                  ....       0.654 sec
Sum of individual times     ....       0.552 sec  ( 84.3%)

Fock matrix formation       ....       0.506 sec  ( 77.4%)
  Split-RI-J                ....       0.446 sec  ( 88.1% of F)
  XC integration            ....       0.015 sec  (  3.0% of F)
    Basis function eval.    ....       0.001 sec  (  9.1% of XC)
    Density eval.           ....       0.001 sec  (  8.7% of XC)
    XC-Functional eval.     ....       0.002 sec  ( 11.5% of XC)
    XC-Potential eval.      ....       0.001 sec  (  3.5% of XC)
Diagonalization             ....       0.001 sec  (  0.1%)
Density matrix formation    ....       0.000 sec  (  0.0%)
Population analysis         ....       0.001 sec  (  0.2%)
Initial guess               ....       0.002 sec  (  0.3%)
Orbital Transformation      ....       0.000 sec  (  0.0%)
Orbital Orthonormalization  ....       0.000 sec  (  0.0%)
DIIS solution               ....       0.000 sec  (  0.1%)
Grid generation             ....       0.041 sec  (  6.2%)


-------------------------------------------------------------------------------
                          DFT DISPERSION CORRECTION                            
                                                                               
                              DFTD3 V3.1  Rev 1                                
                          USING Becke-Johnson damping                          
-------------------------------------------------------------------------------
The PBE functional is recognized
Active option DFTDOPT                   ...         4   

molecular C6(AA) [au] = 58.917052 


            DFT-D V3
 parameters
 s6 scaling factor         :     1.0000 
 a1 scaling factor         :     0.4289 
 s8 scaling factor         :     0.7875 
 a2 scaling factor         :     4.4407 
 ad hoc parameters k1-k3   :    16.0000     1.3333    -4.0000 

 Edisp/kcal,au: -0.353585754279  -0.000563474706 
 E6   /kcal   :  -0.277633828 
 E8   /kcal   :  -0.075951926 
 % E8         :  21.480482474 

-------------------------   ----------------
Dispersion correction           -0.000563475
-------------------------   ----------------


-------------------------   --------------------
FINAL SINGLE POINT ENERGY        -1.655676296857
-------------------------   --------------------

                                *** OPTIMIZATION RUN DONE ***

                            ***************************************
                            *     ORCA property calculations      *
                            ***************************************

                                    ---------------------
                                    Active property flags
                                    ---------------------
   (+) Dipole Moment


------------------------------------------------------------------------------
                       ORCA ELECTRIC PROPERTIES CALCULATION
------------------------------------------------------------------------------

Dipole Moment Calculation                       ... on
Quadrupole Moment Calculation                   ... off
Polarizability Calculation                      ... off
GBWName                                         ... h3_constrained_opt_orca.gbw
Electron density file                           ... h3_constrained_opt_orca.scfp.tmp
The origin for moment calculation is the CENTER OF MASS  = ( 1.511781,  0.000000  0.000000)

-------------
DIPOLE MOMENT
-------------
                                X             Y             Z
Electronic contribution:      0.02003       0.00000       0.00000
Nuclear contribution   :      0.00000       0.00000      -0.00000
                        -----------------------------------------
Total Dipole Moment    :      0.02003       0.00000       0.00000
                        -----------------------------------------
Magnitude (a.u.)       :      0.02003
Magnitude (Debye)      :      0.05091



--------------------
Rotational spectrum 
--------------------
 
Rotational constants in cm-1:     0.000000     9.135845     9.135845 
Rotational constants in MHz :     0.000000 273885.751271 273885.751271 

 Dipole components along the rotational axes: 
x,y,z [a.u.] :    -0.020029     0.000000     0.000000 
x,y,z [Debye]:    -0.050909     0.000000     0.000000 

 

Timings for individual modules:

Sum of individual times         ...       18.720 sec (=   0.312 min)
GTO integral calculation        ...        5.020 sec (=   0.084 min)  26.8 %
SCF iterations                  ...        8.938 sec (=   0.149 min)  47.7 %
SCF Gradient evaluation         ...        4.642 sec (=   0.077 min)  24.8 %
Geometry relaxation             ...        0.120 sec (=   0.002 min)   0.6 %
                             ****ORCA TERMINATED NORMALLY****
TOTAL RUN TIME: 0 days 0 hours 0 minutes 20 seconds 125 msec
