      -----------------------------------------------------------      
     |                   =====================                   |     
     |                           x T B                           |     
     |                   =====================                   |     
     |                         S. Grimme                         |     
     |          Mulliken Center for Theoretical Chemistry        |     
     |                    University of Bonn                     |     
      -----------------------------------------------------------      

   * xtb version 6.2.3 (830e466) compiled by 'ehlert@majestix' on 2020-03-16

   xtb is free software: you can redistribute it and/or modify it under
   the terms of the GNU Lesser General Public License as published by
   the Free Software Foundation, either version 3 of the License, or
   (at your option) any later version.
   
   xtb is distributed in the hope that it will be useful,
   but WITHOUT ANY WARRANTY; without even the implied warranty of
   MERCHANTABILITY or FITNESS FOR A PARTICULAR PURPOSE.  See the
   GNU Lesser General Public License for more details.
   
   Cite this work as:
   * S. Grimme, C. Bannwarth, P. Shushkov, J. Chem. Theory Comput., 2017,
     13, 1989-2009. DOI: 10.1021/acs.jctc.7b00118
   * C. Bannwarth, S. Ehlert and S. Grimme., J. Chem. Theory Comput., 2019,
     15, 1652-1671. DOI: 10.1021/acs.jctc.8b01176
   * P. Pracht, E. Caldeweyher, S. Ehlert, S. Grimme, ChemRxiv, 2019, preprint.
     DOI: 10.26434/chemrxiv.8326202.v1
   
   for DFT-D4:
   * E. Caldeweyher, C. Bannwarth and S. Grimme, J. Chem. Phys., 2017,
     147, 034112. DOI: 10.1063/1.4993215
   * E. Caldeweyher, S. Ehlert, A. Hansen, H. Neugebauer, S. Spicher,
     C. Bannwarth and S. Grimme, J. Chem. Phys., 2019, 150, 154122.
     DOI: 10.1063/1.5090222
   
   for sTDA-xTB:
   * S. Grimme and C. Bannwarth, J. Chem. Phys., 2016, 145, 054103.
     DOI: 10.1063/1.4959605
   
   in the mass-spec context:
   * V. Asgeirsson, C. Bauer and S. Grimme, Chem. Sci., 2017, 8, 4879.
     DOI: 10.1039/c7sc00601b
   
   for metadynamics refer to:
   * S. Grimme, J. Chem. Theory Comput., 2019, 155, 2847-2862
     DOI: 10.1021/acs.jctc.9b00143
   
   with help from (in alphabetical order)
   C. Bannwarth, F. Bohle, G. Brandenburg, E. Caldeweyher, M. Checinski,
   S. Dohm, S. Ehlert, S. Ehrlich, F. März, H. Neugebauer, J. Pisarek,
   P. Pracht, P. Shushkov, and S. Spicher.
   
 * started run on 2020/04/06 at 00:02:22.232     

           -------------------------------------------------
          |                Calculation Setup                |
           -------------------------------------------------

          program call               : /home/tom/.local/bin/xtb template_ts_guess_constrained_opt_ll_xtb.xyz --chrg 0 --opt --input xcontrol_template_ts_guess_constrained_opt_ll
          coordinate file            : template_ts_guess_constrained_opt_ll_xtb.xyz
          omp threads                :                     1
          number of atoms            :                     3
          number of electrons        :                     3
          charge                     :                     0
          spin                       :                   0.5
          first test random number   :      0.24342489600699

constraining bond 1 2 to    1.0000000 Å, actual value:    0.7000000 Å

molecular fragmentation (1/2 indicates fragments):
112
# atoms in fragment 1/2:     2     1
 fragment masses (1/2) :        2.02        1.01
CMA distance (Bohr)    :   2.551
constraining FC (au)   : 10.0000
########################################################################
[WARNING] Please study the warnings concerning your input carefully
-2- prog_main: XTBPATH is not set, using XTBHOME instead
-1- prog_main: XTBHOME is not set, using HOME instead
########################################################################
           ------------------------------------------------- 
          |                 G F N 2 - x T B                 |
          | Geometry, Frequencies, Noncovalent interactions |
          |            JCTC 2019 parametrisation            |
           ------------------------------------------------- 
             k(s)              :                1.8500
             k(p)              :                2.2300
             k(d)              :                2.2300
             k(f)              :                2.0000
             kEN (H0ij)        :               -2.0000
             D4 a1             :                0.5200
             D4 a2             :                5.0000
             D4 s6             :                1.0000
             D4 s8             :                2.7000
             D4 s9             :                5.0000
             alphaj            :                2.0000

  Z AO/shell   Hii/eV     exponent
  1     Wed Apr 25 08:07:45 CEST 2018   EN: 2.200 GM2: 0.406  GM3: 0.0800  RAES: 1.40
     1s    -10.707211    1.230000

           ------------------------------------------------- 
          |        Self-Consistent Charge Iterations        |
           ------------------------------------------------- 

          ...................................................
          :                      SETUP                      :
          :.................................................:
          :  # basis functions                   3          :
          :  # atomic orbitals                   3          :
          :  # shells                            3          :
          :  # electrons                         3          :
          :  max. iterations                   250          :
          :  Hamiltonian                  GFN2-xTB          :
          :  restarted?                      false          :
          :  GBSA solvation                  false          :
          :  PC potential                    false          :
          :  electronic temp.          300.0000000     K    :
          :  accuracy                    1.0000000          :
          :  -> integral cutoff          0.2500000E+02      :
          :  -> integral neglect         0.1000000E-07      :
          :  -> SCF convergence          0.1000000E-05 Eh   :
          :  -> wf. convergence          0.1000000E-03 e    :
          :  Broyden damping             0.4000000          :
          ...................................................

 iter      E             dE          RMSdq      gap      omega  full diag
   1     -1.4117861 -0.141179E+01  0.233E+00   26.62       0.0  T
   2     -1.4121487 -0.362633E-03  0.139E+00   26.28       1.0  T
   3     -1.4123150 -0.166329E-03  0.188E-01   25.86       1.0  T
   4     -1.4123183 -0.322063E-05  0.279E-02   25.92       2.1  T
   5     -1.4123187 -0.418250E-06  0.908E-03   25.92       6.4  T
   6     -1.4123187  0.433623E-09  0.178E-03   25.92      32.4  T
   7     -1.4123187 -0.118329E-08  0.154E-05   25.92    3740.5  T
   8     -1.4123187 -0.159206E-12  0.669E-07   25.92   86364.9  T

   *** convergence criteria satisfied after 8 iterations ***

         #    Occupation            Energy/Eh            Energy/eV
      -------------------------------------------------------------
         1        2.0000           -0.5380361             -14.6407
         2        1.0000           -0.3045811              -8.2881 (HOMO)
         3                          0.6479480              17.6316 (LUMO)
      -------------------------------------------------------------
                  HL-Gap            0.9525291 Eh           25.9196 eV
             Fermi-level           -0.1248126 Eh           -3.3963 eV

 SCC (total)                   0 d,  0 h,  0 min,  0.001 sec
 SCC setup                      ...        0 min,  0.000 sec (  9.427%)
 Dispersion                     ...        0 min,  0.000 sec (  1.653%)
 integral evaluation            ...        0 min,  0.000 sec (  5.171%)
 zeroth order Hamiltonian       ...        0 min,  0.000 sec (  1.759%)
 iterations                     ...        0 min,  0.000 sec ( 61.942%)
 molecular gradient             ...        0 min,  0.000 sec ( 12.241%)
 printout                       ...        0 min,  0.000 sec (  4.889%)

         :::::::::::::::::::::::::::::::::::::::::::::::::::::
         ::                     SUMMARY                     ::
         :::::::::::::::::::::::::::::::::::::::::::::::::::::
         :: total energy               1.861214220477 Eh    ::
         :: gradient norm             16.192711305060 Eh/a0 ::
         :: HOMO-LUMO gap             25.919636318412 eV    ::
         ::.................................................::
         :: SCC energy                -1.412318673641 Eh    ::
         :: -> isotropic ES            0.000553422203 Eh    ::
         :: -> anisotropic ES          0.001333642935 Eh    ::
         :: -> anisotropic XC          0.000961571375 Eh    ::
         :: -> dispersion             -0.000226848820 Eh    ::
         :: repulsion energy           0.059575147102 Eh    ::
         :: add. restraining           3.213957747103 Eh    ::
         :::::::::::::::::::::::::::::::::::::::::::::::::::::

      ----------------------------------------------------------- 
     |                   =====================                   |
     |                        A N C O P T                        |
     |                   =====================                   |
     |               Approximate Normal Coordinate               |
     |                Rational Function Optimizer                |
      ----------------------------------------------------------- 

          ...................................................
          :                      SETUP                      :
          :.................................................:
          :   optimization level            normal          :
          :   max. optcycles                   200          :
          :   ANC micro-cycles                  20          :
          :   degrees of freedom                 4          :
          :.................................................:
          :   RF solver                   davidson          :
          :   write xtbopt.log                true          :
          :   linear (good luck)              true          :
          :   energy convergence         0.5000000E-05 Eh   :
          :   grad. convergence          0.1000000E-02 Eh/α :
          :   maximium RF displ.         1.0000000          :
          :   Hlow (freq-cutoff)         0.1000000E-01      :
          :   Hmax (freq-cutoff)         5.0000000          :
          :   S6 in model hess.         20.0000000          :
          ...................................................

generating ANC from model Hessian ...
Using Lindh-Hessian (1995)
 Shifting diagonal of input Hessian by    17.1019708653159     
 Lowest  eigenvalues of input Hessian
    0.010000    0.010000   -0.000000    0.000000    0.000000   17.112918
   17.112918   17.208414   57.997898
 Highest eigenvalues
    0.000000    0.000000   17.112918   17.112918   17.208414   57.997898
 

........................................................................
.............................. CYCLE    1 ..............................
........................................................................
   1     -1.4123187 -0.141232E+01  0.133E-08   25.92       0.0  T
   2     -1.4123187 -0.666134E-15  0.543E-09   25.92  100000.0  T
   3     -1.4123187 -0.666134E-15  0.130E-09   25.92  100000.0  T
     SCC iter.                  ...        0 min,  0.000 sec
     gradient                   ...        0 min,  0.000 sec
 * total energy  :     1.8612142 Eh     change        0.2160494E-11 Eh
   gradient norm :    16.1927113 Eh/α   predicted     0.0000000E+00 (-100.00%)
   displ. norm   :     0.8574577 α      lambda       -0.1388456E+02
   maximum displ.:     0.8574392 α      in ANC's #2, #3, #1, ...

........................................................................
.............................. CYCLE    2 ..............................
........................................................................
   1     -1.4262401 -0.142624E+01  0.253E+00   23.20       0.0  T
   2     -1.4272430 -0.100285E-02  0.135E+00   22.59       1.0  T
   3     -1.4276681 -0.425108E-03  0.106E-01   21.92       1.0  T
   4     -1.4276682 -0.766235E-07  0.223E-02   21.90       2.6  T
   5     -1.4276683 -0.942602E-07  0.263E-03   21.88      22.0  T
   6     -1.4276683 -0.328854E-09  0.188E-04   21.88     307.6  T
     SCC iter.                  ...        0 min,  0.000 sec
     gradient                   ...        0 min,  0.000 sec
 * total energy  :     2.7980475 Eh     change        0.9368333E+00 Eh
   gradient norm :    18.3224147 Eh/α   predicted    -0.1204648E+02 (*******%)
   displ. norm   :     0.3870698 α      lambda       -0.7091314E+01
   maximum displ.:     0.3869889 α      in ANC's #2, #3, #1, ...

........................................................................
.............................. CYCLE    3 ..............................
........................................................................
   1     -1.4121564 -0.141216E+01  0.119E+00   18.07       0.0  T
   2     -1.4126897 -0.533241E-03  0.587E-01   18.09       1.0  T
   3     -1.4128282 -0.138538E-03  0.958E-02   18.12       1.0  T
   4     -1.4128299 -0.169762E-05  0.337E-02   18.13       1.7  T
   5     -1.4128300 -0.870523E-07  0.429E-03   18.13      13.5  T
   6     -1.4128300 -0.255679E-08  0.144E-03   18.13      40.0  T
     SCC iter.                  ...        0 min,  0.000 sec
     gradient                   ...        0 min,  0.000 sec
 * total energy  :    -1.2843956 Eh     change       -0.4082443E+01 Eh
   gradient norm :     2.7814816 Eh/α   predicted    -0.4076878E+01 (  -0.14%)
   displ. norm   :     0.0699968 α      lambda       -0.1924109E+00
   maximum displ.:     0.0689076 α      in ANC's #2, #3, #4, ...

........................................................................
.............................. CYCLE    4 ..............................
........................................................................
   1     -1.4114063 -0.141141E+01  0.281E-01   17.96       0.0  T
   2     -1.4114337 -0.273385E-04  0.135E-01   17.97       1.0  T
   3     -1.4114416 -0.794352E-05  0.120E-02   17.98       4.8  T
   4     -1.4114416 -0.104975E-07  0.236E-03   17.98      24.5  T
   5     -1.4114416 -0.163103E-08  0.435E-04   17.98     132.6  T
     SCC iter.                  ...        0 min,  0.000 sec
     gradient                   ...        0 min,  0.000 sec
 * total energy  :    -1.3815290 Eh     change       -0.9713333E-01 Eh
   gradient norm :     0.0658311 Eh/α   predicted    -0.9667681E-01 (  -0.47%)
   displ. norm   :     0.0129954 α      lambda       -0.8413824E-03
   maximum displ.:     0.0129787 α      in ANC's #3, #2, #4, ...

........................................................................
.............................. CYCLE    5 ..............................
........................................................................
   1     -1.4113594 -0.141136E+01  0.377E-02   17.71       0.0  T
   2     -1.4113597 -0.370502E-06  0.193E-02   17.71       3.0  T
   3     -1.4113598 -0.111159E-06  0.269E-03   17.71      21.5  T
   4     -1.4113598 -0.655988E-09  0.358E-04   17.71     161.1  T
     SCC iter.                  ...        0 min,  0.000 sec
     gradient                   ...        0 min,  0.000 sec
 * total energy  :    -1.3823365 Eh     change       -0.8075537E-03 Eh
   gradient norm :     0.0611125 Eh/α   predicted    -0.4207616E-03 ( -47.90%)
   displ. norm   :     0.1803870 α      lambda       -0.1083242E-01
   maximum displ.:     0.1803787 α      in ANC's #3, #2, #4, ...

........................................................................
.............................. CYCLE    6 ..............................
........................................................................
   1     -1.4092982 -0.140930E+01  0.484E-01   14.67       0.0  T
   2     -1.4093619 -0.636378E-04  0.247E-01   14.68       1.0  T
   3     -1.4093804 -0.185524E-04  0.410E-02   14.69       1.4  T
   4     -1.4093805 -0.101394E-06  0.436E-03   14.69      13.2  T
   5     -1.4093805 -0.788876E-09  0.147E-03   14.69      39.3  T
     SCC iter.                  ...        0 min,  0.000 sec
     gradient                   ...        0 min,  0.000 sec
 * total energy  :    -1.3890851 Eh     change       -0.6748556E-02 Eh
   gradient norm :     0.0699429 Eh/α   predicted    -0.5592442E-02 ( -17.13%)
   displ. norm   :     0.0880386 α      lambda       -0.1834514E-02
   maximum displ.:     0.0880325 α      in ANC's #3, #2, #4, ...

........................................................................
.............................. CYCLE    7 ..............................
........................................................................
   1     -1.4079155 -0.140792E+01  0.216E-01   13.60       0.0  T
   2     -1.4079280 -0.124813E-04  0.111E-01   13.60       1.0  T
   3     -1.4079317 -0.364901E-05  0.206E-02   13.60       2.8  T
   4     -1.4079317 -0.206836E-07  0.210E-03   13.60      27.5  T
   5     -1.4079317 -0.802365E-09  0.652E-04   13.60      88.6  T
     SCC iter.                  ...        0 min,  0.000 sec
     gradient                   ...        0 min,  0.000 sec
 * total energy  :    -1.3903394 Eh     change       -0.1254309E-02 Eh
   gradient norm :     0.0183587 Eh/α   predicted    -0.9243694E-03 ( -26.30%)
   displ. norm   :     0.0590807 α      lambda       -0.4826740E-03
   maximum displ.:     0.0590797 α      in ANC's #3, #2, #4, ...

........................................................................
.............................. CYCLE    8 ..............................
........................................................................
   1     -1.4068303 -0.140683E+01  0.140E-01   12.98       0.0  T
   2     -1.4068356 -0.529999E-05  0.715E-02   12.98       1.0  T
   3     -1.4068371 -0.154484E-05  0.137E-02   12.98       4.2  T
   4     -1.4068371 -0.753503E-08  0.136E-03   12.98      42.6  T
   5     -1.4068371 -0.496844E-09  0.436E-04   12.98     132.5  T
     SCC iter.                  ...        0 min,  0.000 sec
     gradient                   ...        0 min,  0.000 sec
 * total energy  :    -1.3906305 Eh     change       -0.2911390E-03 Eh
   gradient norm :     0.0044583 Eh/α   predicted    -0.2421720E-03 ( -16.82%)
   displ. norm   :     0.0185723 α      lambda       -0.3611276E-04
   maximum displ.:     0.0185720 α      in ANC's #3, #2, #4, ...

........................................................................
.............................. CYCLE    9 ..............................
........................................................................
   1     -1.4064805 -0.140648E+01  0.434E-02   12.80       0.0  T
   2     -1.4064810 -0.518831E-06  0.222E-02   12.80       2.6  T
   3     -1.4064812 -0.151160E-06  0.427E-03   12.80      13.5  T
   4     -1.4064812 -0.677765E-09  0.406E-04   12.80     142.1  T
   5     -1.4064812 -0.467852E-10  0.127E-04   12.80     454.4  T
     SCC iter.                  ...        0 min,  0.000 sec
     gradient                   ...        0 min,  0.000 sec
 * total energy  :    -1.3906510 Eh     change       -0.2049700E-04 Eh
   gradient norm :     0.0022799 Eh/α   predicted    -0.1806388E-04 ( -11.87%)
   displ. norm   :     0.0030866 α      lambda       -0.9566957E-06
   maximum displ.:     0.0030861 α      in ANC's #3, #2, #4, ...

........................................................................
.............................. CYCLE   10 ..............................
........................................................................
   1     -1.4064223 -0.140642E+01  0.726E-03   12.77       0.0  T
   2     -1.4064223 -0.146951E-07  0.370E-03   12.77      15.6  T
   3     -1.4064223 -0.427470E-08  0.706E-04   12.77      81.8  T
   4     -1.4064223 -0.180786E-10  0.670E-05   12.77     861.9  T
     SCC iter.                  ...        0 min,  0.000 sec
     gradient                   ...        0 min,  0.000 sec
 * total energy  :    -1.3906515 Eh     change       -0.5008815E-06 Eh
   gradient norm :     0.0004070 Eh/α   predicted    -0.4767345E-06 (  -4.82%)
   displ. norm   :     0.0001870 α      lambda       -0.3275205E-08
   maximum displ.:     0.0001865 α      in ANC's #3, #2, #4, ...

   *** GEOMETRY OPTIMIZATION CONVERGED AFTER 10 ITERATIONS ***

------------------------------------------------------------------------
 total energy gain   :        -3.2518657 Eh    -2040.5766 kcal/mol
 total RMSD          :         0.3218862 a0        0.1703 Å
 total power (kW/mol):      -853.7772357 (step)********** (real)
------------------------------------------------------------------------

 ANCopt (total)                0 d,  0 h,  0 min,  0.004 sec
 optimizer setup                ...        0 min,  0.000 sec (  1.300%)
 model hessian                  ...        0 min,  0.000 sec (  0.393%)
 ANC generation                 ...        0 min,  0.000 sec (  0.786%)
 coordinate transformation      ...        0 min,  0.000 sec (  0.941%)
 single point calculation       ...        0 min,  0.002 sec ( 47.333%)
 optimization log               ...        0 min,  0.000 sec (  3.663%)
 hessian update                 ...        0 min,  0.000 sec (  0.658%)
 rational function              ...        0 min,  0.002 sec ( 38.353%)

================
 final structure:
================
3
 xtb: 6.2.3 (830e466)
H        -0.23371778436932    0.00000000878313   -0.00000001904767
H         0.76633217369621    0.00000000882302   -0.00000001913418
H         1.86738561067312   -0.00000001760614    0.00000003818185
 
 Bond Distances (Angstroems)
 ---------------------------

 
 selected bond angles (degree)
 --------------------

 
 selected dihedral angles (degree)
 ---------------------------------

 
 CMA Distance (Angstroems)
 ---------------------------
R(CMA):  1.6011
           -------------------------------------------------
          |                Final Singlepoint                |
           -------------------------------------------------

          ...................................................
          :                      SETUP                      :
          :.................................................:
          :  # basis functions                   3          :
          :  # atomic orbitals                   3          :
          :  # shells                            3          :
          :  # electrons                         3          :
          :  max. iterations                   250          :
          :  Hamiltonian                  GFN2-xTB          :
          :  restarted?                      false          :
          :  GBSA solvation                  false          :
          :  PC potential                    false          :
          :  electronic temp.          300.0000000     K    :
          :  accuracy                    1.0000000          :
          :  -> integral cutoff          0.2500000E+02      :
          :  -> integral neglect         0.1000000E-07      :
          :  -> SCF convergence          0.1000000E-05 Eh   :
          :  -> wf. convergence          0.1000000E-03 e    :
          :  Broyden damping             0.4000000          :
          ...................................................

 iter      E             dE          RMSdq      gap      omega  full diag
   1     -1.4064223 -0.140642E+01  0.184E-05   12.77       0.0  T
   2     -1.4064223 -0.430767E-13  0.960E-06   12.77    6012.9  T
   3     -1.4064223 -0.139888E-13  0.835E-07   12.77   69148.1  T

   *** convergence criteria satisfied after 3 iterations ***

         #    Occupation            Energy/Eh            Energy/eV
      -------------------------------------------------------------
         1        2.0000           -0.4927956             -13.4097
         2        1.0000           -0.3293668              -8.9625 (HOMO)
         3                          0.1400093               3.8098 (LUMO)
      -------------------------------------------------------------
                  HL-Gap            0.4693760 Eh           12.7724 eV
             Fermi-level           -0.2528800 Eh           -6.8812 eV

 SCC (total)                   0 d,  0 h,  0 min,  0.000 sec
 SCC setup                      ...        0 min,  0.000 sec ( 14.776%)
 Dispersion                     ...        0 min,  0.000 sec (  1.388%)
 integral evaluation            ...        0 min,  0.000 sec (  7.184%)
 zeroth order Hamiltonian       ...        0 min,  0.000 sec (  2.041%)
 iterations                     ...        0 min,  0.000 sec ( 43.102%)
 molecular gradient             ...        0 min,  0.000 sec ( 14.694%)
 printout                       ...        0 min,  0.000 sec (  8.898%)

         :::::::::::::::::::::::::::::::::::::::::::::::::::::
         ::                     SUMMARY                     ::
         :::::::::::::::::::::::::::::::::::::::::::::::::::::
         :: total energy              -1.390651530086 Eh    ::
         :: gradient norm              0.000406879011 Eh/a0 ::
         :: HOMO-LUMO gap             12.772371427355 eV    ::
         ::.................................................::
         :: SCC energy                -1.406422349826 Eh    ::
         :: -> isotropic ES            0.000216470324 Eh    ::
         :: -> anisotropic ES          0.000482219938 Eh    ::
         :: -> anisotropic XC          0.002347669231 Eh    ::
         :: -> dispersion             -0.000392512773 Eh    ::
         :: repulsion energy           0.015770731614 Eh    ::
         :: add. restraining           0.000000089127 Eh    ::
         :::::::::::::::::::::::::::::::::::::::::::::::::::::

           -------------------------------------------------
          |                Property Printout                |
           -------------------------------------------------

    * Orbital Energies and Occupations

         #    Occupation            Energy/Eh            Energy/eV
      -------------------------------------------------------------
         1        2.0000           -0.4927956             -13.4097
         2        1.0000           -0.3293668              -8.9625 (HOMO)
         3                          0.1400093               3.8098 (LUMO)
      -------------------------------------------------------------
                  HL-Gap            0.4693760 Eh           12.7724 eV
             Fermi-level           -0.2528800 Eh           -6.8812 eV

     #   Z        covCN         q      C6AA      α(0)
     1   1 H      0.033    -0.019     8.474     5.322
     2   1 H      0.034     0.064     5.370     4.237
     3   1 H      0.001    -0.045     9.892     5.751

 Mol. C6AA /au·bohr⁶  :         70.117463
 Mol. C8AA /au·bohr⁸  :        847.604439
 Mol. α(0) /au        :         15.310167


Wiberg/Mayer (AO) data.
largest (>0.10) Wiberg bond orders for each atom
          total WBO             WBO to atom ...
     1  H   0.553        H    2 0.552
     2  H   0.996        H    1 0.552    H    3 0.444
     3  H   0.445        H    2 0.444

molecular dipole:
                 x           y           z       tot (Debye)
 q only:       -0.058       0.000      -0.000
   full:       -0.058       0.000      -0.000       0.148
molecular quadrupole (traceless):
                xx          xy          yy          xz          yz          zz
 q only:       -0.430       0.000       0.215      -0.000       0.000       0.215
  q+dip:        0.679      -0.000      -0.339       0.000      -0.000      -0.339
   full:        0.010       0.000      -0.005      -0.000      -0.000      -0.005

           -------------------------------------------------
          |                Geometry Summary                 |
           -------------------------------------------------

      molecular mass/u    :        3.0238222
   center of mass at/Å    :        0.8000000       0.0000000       0.0000000
  moments of inertia/u·Å² :        0.7806930E-15   0.2226559E+01   0.2226559E+01
rotational constants/cm⁻¹ :        0.2159316E+17   0.7571158E+01   0.7571158E+01


optimized geometry written to: xtbopt.xyz


           -------------------------------------------------
          | TOTAL ENERGY               -1.390651530086 Eh   |
          | GRADIENT NORM               0.000406879011 Eh/α |
          | HOMO-LUMO GAP              12.772371427355 eV   |
           -------------------------------------------------

------------------------------------------------------------------------
 * finished run on 2020/04/06 at 00:02:22.273     
------------------------------------------------------------------------
 total:
 * wall-time:     0 d,  0 h,  0 min,  0.040 sec
 *  cpu-time:     0 d,  0 h,  0 min,  0.011 sec
 * ratio c/w:     0.282 speedup
 SCF:
 * wall-time:     0 d,  0 h,  0 min,  0.001 sec
 *  cpu-time:     0 d,  0 h,  0 min,  0.001 sec
 * ratio c/w:     0.997 speedup
 ANC optimizer:
 * wall-time:     0 d,  0 h,  0 min,  0.005 sec
 *  cpu-time:     0 d,  0 h,  0 min,  0.004 sec
 * ratio c/w:     0.751 speedup

