
                                 *****************
                                 * O   R   C   A *
                                 *****************

           --- An Ab Initio, DFT and Semiempirical electronic structure package ---

                  #######################################################
                  #                        -***-                        #
                  #          Department of theory and spectroscopy      #
                  #               Directorship: Frank Neese             #
                  #        Max Planck Institute fuer Kohlenforschung    #
                  #                Kaiser Wilhelm Platz 1               #
                  #                 D-45470 Muelheim/Ruhr               #
                  #                      Germany                        #
                  #                                                     #
                  #                  All rights reserved                #
                  #                        -***-                        #
                  #######################################################


                         Program Version 4.1.1  - RELEASE  -


 With contributions from (in alphabetic order):
   Daniel Aravena         : Magnetic Properties
   Michael Atanasov       : Ab Initio Ligand Field Theory
   Alexander A. Auer      : GIAO ZORA
   Ute Becker             : Parallelization
   Giovanni Bistoni       : ED, Open-shell LED
   Martin Brehm           : Molecular dynamics
   Dmytro Bykov           : SCF Hessian
   Vijay G. Chilkuri      : MRCI spin determinant printing
   Dipayan Datta          : RHF DLPNO-CCSD density
   Achintya Kumar Dutta   : EOM-CC, STEOM-CC
   Dmitry Ganyushin       : Spin-Orbit,Spin-Spin,Magnetic field MRCI
   Miquel Garcia          : C-PCM Hessian
   Yang Guo               : DLPNO-NEVPT2, CIM, IAO-localization
   Andreas Hansen         : Spin unrestricted coupled pair/coupled cluster methods
   Benjamin Helmich-Paris : CASSCF linear response (MC-RPA)
   Lee Huntington         : MR-EOM, pCC
   Robert Izsak           : Overlap fitted RIJCOSX, COSX-SCS-MP3, EOM
   Christian Kollmar      : KDIIS, OOCD, Brueckner-CCSD(T), CCSD density
   Simone Kossmann        : Meta GGA functionals, TD-DFT gradient, OOMP2, MP2 Hessian
   Martin Krupicka        : AUTO-CI
   Lucas Lang             : DCDCAS
   Dagmar Lenk            : GEPOL surface, SMD
   Dimitrios Liakos       : Extrapolation schemes; parallel MDCI
   Dimitrios Manganas     : ROCIS; embedding schemes
   Dimitrios Pantazis     : SARC Basis sets
   Taras Petrenko         : DFT Hessian,TD-DFT gradient, ASA, ECA, R-Raman, ABS, FL, XAS/XES, NRVS
   Peter Pinski           : DLPNO-MP2, DLPNO-MP2 Gradient
   Christoph Reimann      : Effective Core Potentials
   Marius Retegan         : Local ZFS, SOC
   Christoph Riplinger    : Optimizer, TS searches, QM/MM, DLPNO-CCSD(T), (RO)-DLPNO pert. Triples
   Tobias Risthaus        : Range-separated hybrids, TD-DFT gradient, RPA, STAB
   Michael Roemelt        : Restricted open shell CIS
   Masaaki Saitow         : Open-shell DLPNO
   Barbara Sandhoefer     : DKH picture change effects
   Avijit Sen             : IP-ROCIS
   Kantharuban Sivalingam : CASSCF convergence, NEVPT2, FIC-MRCI
   Bernardo de Souza      : ESD, SOC TD-DFT
   Georgi Stoychev        : AutoAux, RI-MP2 NMR
   Willem Van den Heuvel  : Paramagnetic NMR
   Boris Wezisla          : Elementary symmetry handling
   Frank Wennmohs         : Technical directorship


 We gratefully acknowledge several colleagues who have allowed us to
 interface, adapt or use parts of their codes:
   Stefan Grimme, W. Hujo, H. Kruse,             : VdW corrections, initial TS optimization,
                  C. Bannwarth                     DFT functionals, gCP, sTDA/sTD-DF
   Ed Valeev                                     : LibInt (2-el integral package), F12 methods
   Garnet Chan, S. Sharma, J. Yang, R. Olivares  : DMRG
   Ulf Ekstrom                                   : XCFun DFT Library
   Mihaly Kallay                                 : mrcc  (arbitrary order and MRCC methods)
   Andreas Klamt, Michael Diedenhofen            : otool_cosmo (COSMO solvation model)
   Jiri Pittner, Ondrej Demel                    : Mk-CCSD
   Frank Weinhold                                : gennbo (NPA and NBO analysis)
   Christopher J. Cramer and Donald G. Truhlar   : smd solvation model
   Lars Goerigk                                  : TD-DFT with DH, B97 family of functionals
   V. Asgeirsson, H. Jonsson                     : NEB implementation
   FAccTs GmbH                                   : IRC, NEB, NEB-TS, Multilevel


 Your calculation uses the libint2 library for the computation of 2-el integrals
 For citations please refer to: http://libint.valeyev.net

 This ORCA versions uses:
   CBLAS   interface :  Fast vector & matrix operations
   LAPACKE interface :  Fast linear algebra routines
   SCALAPACK package :  Parallel linear algebra routines


Your calculation utilizes the atom-pairwise dispersion correction
with the Becke-Johnson damping scheme (D3BJ)
Cite in your paper:
S.Grimme, S.Ehrlich, L.Goerigk, J Comput Chem, (2011), 32, 1456–1465 
S.Grimme, J.Antony, S.Ehrlich and H.Krieg, J.Chem.Phys., 132, (2010), 154104 
   

----- Orbital basis set information -----
Your calculation utilizes the basis: def2-SVP
   F. Weigend and R. Ahlrichs, Phys. Chem. Chem. Phys. 7, 3297 (2005).

----- AuxJ basis set information -----
Your calculation utilizes the auxiliary basis: def2/J
   F. Weigend, Phys. Chem. Chem. Phys. 8, 1057 (2006).

================================================================================
                                        WARNINGS
                       Please study these warnings very carefully!
================================================================================


WARNING: Geometry Optimization
  ===> : Switching off AutoStart
         For restart on a previous wavefunction, please use MOREAD

INFO   : the flag for use of LIBINT has been found!

================================================================================
                                       INPUT FILE
================================================================================
NAME = test_ts_reopt_optts_forwards_displacement_orca.inp
|  1> ! Opt PBE0 RIJCOSX D3BJ def2-SVP def2/J
|  2> %geom Constraints
|  3> { B 0 1 0.8520171762664177 C }
|  4> { B 1 2 3.1580592283119073 C }
|  5>     end
|  6> end
|  7> %geom MaxIter 100 end
|  8> %output 
|  9> xyzfile=True 
| 10> end 
| 11> %scf 
| 12> maxiter 250 
| 13> end
| 14> % maxcore 4000
| 15> *xyz -1 1
| 16> F   -1.92052100  -0.07824600   0.09376300 
| 17> C   -1.06967800  -0.04984800   0.05922300 
| 18> Cl   2.07596000   0.13311300  -0.15249600 
| 19> H   -0.12869000  -0.81352900   0.80356000 
| 20> H   -0.13339400  -0.29770800  -1.14592900 
| 21> H   -0.12532000   1.14136500   0.31235200 
| 22> *
| 23> 
| 24>                          ****END OF INPUT****
================================================================================

                       *****************************
                       * Geometry Optimization Run *
                       *****************************

Geometry optimization settings:
Update method            Update   .... BFGS
Choice of coordinates    CoordSys .... Z-matrix Internals
Initial Hessian          InHess   .... Almoef's Model

Convergence Tolerances:
Energy Change            TolE     ....  5.0000e-06 Eh
Max. Gradient            TolMAXG  ....  3.0000e-04 Eh/bohr
RMS Gradient             TolRMSG  ....  1.0000e-04 Eh/bohr
Max. Displacement        TolMAXD  ....  4.0000e-03 bohr
RMS Displacement         TolRMSD  ....  2.0000e-03 bohr

------------------------------------------------------------------------------
                        ORCA OPTIMIZATION COORDINATE SETUP
------------------------------------------------------------------------------

The optimization will be done in new redundant internal coordinates
Making redundant internal coordinates   ...  (new redundants) done
Evaluating the initial hessian          ...  (Almloef) done
Evaluating the coordinates              ...  done
Calculating the B-matrix                .... done
Calculating the G-matrix                .... done
Diagonalizing the G-matrix              .... done
Imposing constraints:
 Iter   0:  RMS(Cart)=    0.0000000009 RMS(Int)=    0.0000000012
CONVERGED
The first mode is                       ....    5
The number of degrees of freedom        ....   12
Storing new coordinates                 .... done

    -----------------------------------------------------------------
                    Redundant Internal Coordinates


    -----------------------------------------------------------------
         Definition                    Initial Value    Approx d2E/dq
    -----------------------------------------------------------------
      1. B(C   1,F   0)                  0.8520         3.752183 C 
      2. B(Cl  2,C   1)                  3.1581         0.002118 C 
      3. B(H   3,C   1)                  1.4222         0.106265   
      4. B(H   3,Cl  2)                  2.5828         0.003356   
      5. B(H   4,C   1)                  1.5461         0.067411   
      6. B(H   4,Cl  2)                  2.4604         0.005260   
      7. B(H   5,C   1)                  1.5411         0.068672   
      8. B(H   5,Cl  2)                  2.4654         0.005164   
      9. A(H   3,C   1,H   5)           85.6213         0.194234   
     10. A(F   0,C   1,H   4)          129.1236         0.356732   
     11. A(H   3,C   1,H   4)           85.4803         0.193794   
     12. A(H   4,C   1,H   5)           83.1574         0.183934   
     13. A(Cl  2,C   1,H   3)           53.6415         0.147558   
     14. A(Cl  2,C   1,H   5)           49.8975         0.142048   
     15. A(Cl  2,C   1,H   4)           49.7472         0.141826   
     16. A(F   0,C   1,H   3)          128.4337         0.385783   
     17. A(F   0,C   1,H   5)          129.1281         0.357858   
    -----------------------------------------------------------------

Number of atoms                         .... 6
Number of degrees of freedom            .... 17

         *************************************************************
         *                GEOMETRY OPTIMIZATION CYCLE   1            *
         *************************************************************
---------------------------------
CARTESIAN COORDINATES (ANGSTROEM)
---------------------------------
  F     -1.920521   -0.078246    0.093763
  C     -1.069678   -0.049848    0.059223
  Cl     2.075960    0.133113   -0.152496
  H     -0.128690   -0.813529    0.803560
  H     -0.133394   -0.297708   -1.145929
  H     -0.125320    1.141365    0.312352

----------------------------
CARTESIAN COORDINATES (A.U.)
----------------------------
  NO LB      ZA    FRAG     MASS         X           Y           Z
   0 F     9.0000    0    18.998   -3.629259   -0.147864    0.177186
   1 C     6.0000    0    12.011   -2.021398   -0.094199    0.111915
   2 Cl   17.0000    0    35.453    3.922996    0.251547   -0.288176
   3 H     1.0000    0     1.008   -0.243189   -1.537347    1.518508
   4 H     1.0000    0     1.008   -0.252078   -0.562587   -2.165492
   5 H     1.0000    0     1.008   -0.236820    2.156867    0.590260

--------------------------------
INTERNAL COORDINATES (ANGSTROEM)
--------------------------------
 F      0   0   0     0.000000000000     0.00000000     0.00000000
 C      1   0   0     0.852017176266     0.00000000     0.00000000
 Cl     2   1   0     3.158059228312   177.92277030     0.00000000
 H      2   1   3     1.422218216546   128.43368118   182.59838462
 H      2   1   4     1.546109197748   129.12361942   121.04881225
 H      2   1   4     1.541062858606   129.12814669   238.67436132

---------------------------
INTERNAL COORDINATES (A.U.)
---------------------------
 F      0   0   0     0.000000000000     0.00000000     0.00000000
 C      1   0   0     1.610079124540     0.00000000     0.00000000
 Cl     2   1   0     5.967867056212   177.92277030     0.00000000
 H      2   1   3     2.687602931945   128.43368118   182.59838462
 H      2   1   4     2.921722956880   129.12361942   121.04881225
 H      2   1   4     2.912186757923   129.12814669   238.67436132

---------------------
BASIS SET INFORMATION
---------------------
There are 4 groups of distinct atoms

 Group   1 Type F   : 7s4p1d contracted to 3s2p1d pattern {511/31/1}
 Group   2 Type C   : 7s4p1d contracted to 3s2p1d pattern {511/31/1}
 Group   3 Type Cl  : 10s7p1d contracted to 4s3p1d pattern {5311/511/1}
 Group   4 Type H   : 4s1p contracted to 2s1p pattern {31/1}

Atom   0F    basis set group =>   1
Atom   1C    basis set group =>   2
Atom   2Cl   basis set group =>   3
Atom   3H    basis set group =>   4
Atom   4H    basis set group =>   4
Atom   5H    basis set group =>   4
-------------------------------
AUXILIARY BASIS SET INFORMATION
-------------------------------
There are 4 groups of distinct atoms

 Group   1 Type F   : 12s5p4d2f1g contracted to 6s4p3d1f1g pattern {711111/2111/211/2/1}
 Group   2 Type C   : 12s5p4d2f1g contracted to 6s4p3d1f1g pattern {711111/2111/211/2/1}
 Group   3 Type Cl  : 14s5p5d2f1g contracted to 8s4p3d1f1g pattern {71111111/2111/311/2/1}
 Group   4 Type H   : 5s2p1d contracted to 3s1p1d pattern {311/2/1}

Atom   0F    basis set group =>   1
Atom   1C    basis set group =>   2
Atom   2Cl   basis set group =>   3
Atom   3H    basis set group =>   4
Atom   4H    basis set group =>   4
Atom   5H    basis set group =>   4
------------------------------------------------------------------------------
                           ORCA GTO INTEGRAL CALCULATION
                           -- RI-GTO INTEGRALS CHOSEN --
------------------------------------------------------------------------------

                         BASIS SET STATISTICS AND STARTUP INFO

Gaussian basis set:
 # of primitive gaussian shells          ...   57
 # of primitive gaussian functions       ...  105
 # of contracted shells                  ...   29
 # of contracted basis functions         ...   61
 Highest angular momentum                ...    2
 Maximum contraction depth               ...    5
Auxiliary gaussian basis set:
 # of primitive gaussian shells          ...   99
 # of primitive gaussian functions       ...  265
 # of contracted shells                  ...   62
 # of contracted aux-basis functions     ...  182
 Highest angular momentum                ...    4
 Maximum contraction depth               ...    7
Ratio of auxiliary to basis functions    ...  2.98
Integral package used                  ... LIBINT
 One Electron integrals                  ... done
 Ordering auxiliary basis shells         ... done
 Integral threshhold             Thresh  ...  2.500e-11
 Primitive cut-off               TCut    ...  2.500e-12
 Pre-screening matrix                    ... done
 Shell pair data                         ... 
 Ordering of the shell pairs             ... done (   0.000 sec) 418 of 435 pairs
 Determination of significant pairs      ... done (   0.000 sec)
 Creation of shell pair data             ... done (   0.000 sec)
 Storage of shell pair data              ... done (   0.000 sec)
 Shell pair data done in (   0.000 sec)
 Computing two index integrals           ... done
 Cholesky decomposition of the V-matrix  ... done


Timings:
 Total evaluation time                   ...   0.286 sec (  0.005 min)
 One electron matrix time                ...   0.011 sec (  0.000 min) =  3.7%
 Schwartz matrix evaluation time         ...   0.159 sec (  0.003 min) = 55.3%
 Two index repulsion integral time       ...   0.001 sec (  0.000 min) =  0.3%
 Cholesky decomposition of V             ...   0.071 sec (  0.001 min) = 24.8%
 Three index repulsion integral time     ...   0.000 sec (  0.000 min) =  0.0%

-------------------------------------------------------------------------------
                                 ORCA SCF
-------------------------------------------------------------------------------

------------
SCF SETTINGS
------------
Hamiltonian:
 Density Functional     Method          .... DFT(GTOs)
 Exchange Functional    Exchange        .... PBE
   PBE kappa parameter   XKappa         ....  0.804000
   PBE mue parameter    XMuePBE         ....  0.219520
 Correlation Functional Correlation     .... PBE
   PBE beta parameter  CBetaPBE         ....  0.066725
 LDA part of GGA corr.  LDAOpt          .... PW91-LDA
 Gradients option       PostSCFGGA      .... off
 Hybrid DFT is turned on
   Fraction HF Exchange ScalHFX         ....  0.250000
   Scaling of DF-GGA-X  ScalDFX         ....  0.750000
   Scaling of DF-GGA-C  ScalDFC         ....  1.000000
   Scaling of DF-LDA-C  ScalLDAC        ....  1.000000
   Perturbative correction              ....  0.000000
   Density functional embedding theory  .... OFF
   NL short-range parameter             ....  6.900000
 RI-approximation to the Coulomb term is turned on
   Number of auxiliary basis functions  .... 182
   RIJ-COSX (HFX calculated with COS-X)).... on


General Settings:
 Integral files         IntName         .... test_ts_reopt_optts_forwards_displacement_orca
 Hartree-Fock type      HFTyp           .... RHF
 Total Charge           Charge          ....   -1
 Multiplicity           Mult            ....    1
 Number of Electrons    NEL             ....   36
 Basis Dimension        Dim             ....   61
 Nuclear Repulsion      ENuc            ....     95.4113138038 Eh

Convergence Acceleration:
 DIIS                   CNVDIIS         .... on
   Start iteration      DIISMaxIt       ....    12
   Startup error        DIISStart       ....  0.200000
   # of expansion vecs  DIISMaxEq       ....     5
   Bias factor          DIISBfac        ....   1.050
   Max. coefficient     DIISMaxC        ....  10.000
 Newton-Raphson         CNVNR           .... off
 SOSCF                  CNVSOSCF        .... on
   Start iteration      SOSCFMaxIt      ....   150
   Startup grad/error   SOSCFStart      ....  0.003300
 Level Shifting         CNVShift        .... on
   Level shift para.    LevelShift      ....    0.2500
   Turn off err/grad.   ShiftErr        ....    0.0010
 Zerner damping         CNVZerner       .... off
 Static damping         CNVDamp         .... on
   Fraction old density DampFac         ....    0.7000
   Max. Damping (<1)    DampMax         ....    0.9800
   Min. Damping (>=0)   DampMin         ....    0.0000
   Turn off err/grad.   DampErr         ....    0.1000
 Fernandez-Rico         CNVRico         .... off

SCF Procedure:
 Maximum # iterations   MaxIter         ....   250
 SCF integral mode      SCFMode         .... Direct
   Integral package                     .... LIBINT
 Reset frequency        DirectResetFreq ....    20
 Integral Threshold     Thresh          ....  2.500e-11 Eh
 Primitive CutOff       TCut            ....  2.500e-12 Eh

Convergence Tolerance:
 Convergence Check Mode ConvCheckMode   .... Total+1el-Energy
 Convergence forced     ConvForced      .... 0
 Energy Change          TolE            ....  1.000e-08 Eh
 1-El. energy change                    ....  1.000e-05 Eh
 Orbital Gradient       TolG            ....  1.000e-05
 Orbital Rotation angle TolX            ....  1.000e-05
 DIIS Error             TolErr          ....  5.000e-07


Diagonalization of the overlap matrix:
Smallest eigenvalue                        ... 1.270e-02
Time for diagonalization                   ...    0.161 sec
Threshold for overlap eigenvalues          ... 1.000e-08
Number of eigenvalues below threshold      ... 0
Time for construction of square roots      ...    0.001 sec
Total time needed                          ...    0.162 sec

-------------------
DFT GRID GENERATION
-------------------

General Integration Accuracy     IntAcc      ...  4.340
Radial Grid Type                 RadialGrid  ... Gauss-Chebyshev
Angular Grid (max. acc.)         AngularGrid ... Lebedev-110
Angular grid pruning method      GridPruning ... 3 (G Style)
Weight generation scheme         WeightScheme... Becke
Basis function cutoff            BFCut       ...    1.0000e-11
Integration weight cutoff        WCut        ...    1.0000e-14
Grids for H and He will be reduced by one unit

# of grid points (after initial pruning)     ...   7622 (   0.0 sec)
# of grid points (after weights+screening)   ...   7427 (   0.0 sec)
nearest neighbour list constructed           ...    0.0 sec
Grid point re-assignment to atoms done       ...    0.0 sec
Grid point division into batches done        ...    0.0 sec
Reduced shell lists constructed in    0.1 sec

Total number of grid points                  ...     7427
Total number of batches                      ...      118
Average number of points per batch           ...       62
Average number of grid points per atom       ...     1238
Average number of shells per batch           ...    22.57 (77.83%)
Average number of basis functions per batch  ...    47.65 (78.11%)
Average number of large shells per batch     ...    19.48 (86.30%)
Average number of large basis fcns per batch ...    40.13 (84.23%)
Maximum spatial batch extension              ...  20.44, 25.60, 21.13 au
Average spatial batch extension              ...   4.86,  5.16,  4.92 au

Time for grid setup =    0.074 sec

------------------------------
INITIAL GUESS: MODEL POTENTIAL
------------------------------
Loading Hartree-Fock densities                     ... done
Calculating cut-offs                               ... done
Setting up the integral package                    ... done
Initializing the effective Hamiltonian             ... done
Starting the Coulomb interaction                   ... done (   0.0 sec)
Reading the grid                                   ... done
Mapping shells                                     ... done
Starting the XC term evaluation                    ... done (   0.0 sec)
  promolecular density results
     # of electrons  =     34.997261822
     EX              =    -43.476959320
     EC              =     -1.251607907
     EX+EC           =    -44.728567227
Transforming the Hamiltonian                       ... done (   0.0 sec)
Diagonalizing the Hamiltonian                      ... done (   0.0 sec)
Back transforming the eigenvectors                 ... done (   0.0 sec)
Now organizing SCF variables                       ... done
                      ------------------
                      INITIAL GUESS DONE (   0.2 sec)
                      ------------------
--------------------
COSX GRID GENERATION
--------------------

General Integration Accuracy     IntAcc      ...  3.340
Radial Grid Type                 RadialGrid  ... Gauss-Chebyshev
Angular Grid (max. acc.)         AngularGrid ... Lebedev-50
Angular grid pruning method      GridPruning ... 3 (G Style)
Weight generation scheme         WeightScheme... Becke
Basis function cutoff            BFCut       ...    1.0000e-11
Integration weight cutoff        WCut        ...    1.0000e-14
Grids for H and He will be reduced by one unit

# of grid points (after initial pruning)     ...   2826 (   0.0 sec)
# of grid points (after weights+screening)   ...   2753 (   0.0 sec)
nearest neighbour list constructed           ...    0.0 sec
Grid point re-assignment to atoms done       ...    0.0 sec
Grid point division into batches done        ...    0.0 sec
Reduced shell lists constructed in    0.0 sec

Total number of grid points                  ...     2753
Total number of batches                      ...       46
Average number of points per batch           ...       59
Average number of grid points per atom       ...      459
Average number of shells per batch           ...    24.00 (82.76%)
Average number of basis functions per batch  ...    51.40 (84.27%)
Average number of large shells per batch     ...    21.36 (89.01%)
Average number of large basis fcns per batch ...    44.72 (87.00%)
Maximum spatial batch extension              ...  17.45, 20.72, 20.72 au
Average spatial batch extension              ...   6.06,  7.08,  6.93 au

Overlap Fitting                  UseSFitting ... on
Constructing numerical overlap ... done (      0.0 sec)
Inverting numerical overlap    ... done (      0.0 sec)
Obtaining analytic overlap     ... done (      0.0 sec)
Final contraction and storage  ... done (      0.0 sec)


General Integration Accuracy     IntAcc      ...  3.670
Radial Grid Type                 RadialGrid  ... Gauss-Chebyshev
Angular Grid (max. acc.)         AngularGrid ... Lebedev-50
Angular grid pruning method      GridPruning ... 3 (G Style)
Weight generation scheme         WeightScheme... Becke
Basis function cutoff            BFCut       ...    1.0000e-11
Integration weight cutoff        WCut        ...    1.0000e-14
Grids for H and He will be reduced by one unit

# of grid points (after initial pruning)     ...   3566 (   0.0 sec)
# of grid points (after weights+screening)   ...   3470 (   0.0 sec)
nearest neighbour list constructed           ...    0.0 sec
Grid point re-assignment to atoms done       ...    0.0 sec
Grid point division into batches done        ...    0.0 sec
Reduced shell lists constructed in    0.0 sec

Total number of grid points                  ...     3470
Total number of batches                      ...       56
Average number of points per batch           ...       61
Average number of grid points per atom       ...      578
Average number of shells per batch           ...    23.98 (82.70%)
Average number of basis functions per batch  ...    51.39 (84.24%)
Average number of large shells per batch     ...    21.18 (88.30%)
Average number of large basis fcns per batch ...    44.30 (86.21%)
Maximum spatial batch extension              ...  18.43, 22.67, 22.67 au
Average spatial batch extension              ...   5.94,  6.31,  6.37 au

Overlap Fitting                  UseSFitting ... on
Constructing numerical overlap ... done (      0.0 sec)
Inverting numerical overlap    ... done (      0.0 sec)
Obtaining analytic overlap     ... done (      0.0 sec)
Final contraction and storage  ... done (      0.0 sec)


General Integration Accuracy     IntAcc      ...  4.010
Radial Grid Type                 RadialGrid  ... Gauss-Chebyshev
Angular Grid (max. acc.)         AngularGrid ... Lebedev-110
Angular grid pruning method      GridPruning ... 3 (G Style)
Weight generation scheme         WeightScheme... Becke
Basis function cutoff            BFCut       ...    1.0000e-11
Integration weight cutoff        WCut        ...    1.0000e-14
Grids for H and He will be reduced by one unit

# of grid points (after initial pruning)     ...   6574 (   0.0 sec)
# of grid points (after weights+screening)   ...   6408 (   0.0 sec)
nearest neighbour list constructed           ...    0.0 sec
Grid point re-assignment to atoms done       ...    0.0 sec
Grid point division into batches done        ...    0.0 sec
Reduced shell lists constructed in    0.0 sec

Total number of grid points                  ...     6408
Total number of batches                      ...      104
Average number of points per batch           ...       61
Average number of grid points per atom       ...     1068
Average number of shells per batch           ...    22.82 (78.69%)
Average number of basis functions per batch  ...    48.17 (78.97%)
Average number of large shells per batch     ...    19.91 (87.27%)
Average number of large basis fcns per batch ...    41.19 (85.51%)
Maximum spatial batch extension              ...  20.25, 24.23, 19.38 au
Average spatial batch extension              ...   5.12,  5.49,  5.15 au

Overlap Fitting                  UseSFitting ... on
Constructing numerical overlap ... done (      0.0 sec)
Inverting numerical overlap    ... done (      0.0 sec)
Obtaining analytic overlap     ... done (      0.0 sec)
Final contraction and storage  ... done (      0.0 sec)

Time for X-Grid setup             =    0.140 sec
--------------
SCF ITERATIONS
--------------
ITER       Energy         Delta-E        Max-DP      RMS-DP      [F,P]     Damp
               ***  Starting incremental Fock matrix formation  ***
  0   -598.5912579495   0.000000000000 0.10673986  0.00443843  0.1464729 0.7000
  1   -598.6284033355  -0.037145385952 0.07297794  0.00367521  0.0868939 0.7000
                               ***Turning on DIIS***
  2   -598.6496843266  -0.021280991163 0.14951158  0.00781625  0.0446488 0.0000
  3   -598.6843306055  -0.034646278840 0.07024335  0.00270811  0.0367615 0.0000
  4   -598.6887736369  -0.004443031445 0.01402772  0.00051353  0.0067007 0.0000
                      *** Initiating the SOSCF procedure ***
                           *** Shutting down DIIS ***
                      *** Re-Reading the Fockian *** 
                      *** Removing any level shift *** 
ITER      Energy       Delta-E        Grad      Rot      Max-DP    RMS-DP
  5   -598.68891570  -0.0001420669  0.000479  0.000479  0.005354  0.000212
               *** Restarting incremental Fock matrix formation ***
  6   -598.68892016  -0.0000044535  0.000432  0.001191  0.001328  0.000094
  7   -598.68891761   0.0000025476  0.000637  0.000688  0.000769  0.000054
  8   -598.68892189  -0.0000042845  0.000073  0.000188  0.000365  0.000017
  9   -598.68892192  -0.0000000257  0.000073  0.000094  0.000172  0.000008
 10   -598.68892196  -0.0000000383  0.000004  0.000004  0.000014  0.000001
 11   -598.68892196   0.0000000000  0.000004  0.000002  0.000008  0.000000
                 **** Energy Check signals convergence ****
              ***Rediagonalizing the Fockian in SOSCF/NRSCF***

               *****************************************************
               *                     SUCCESS                       *
               *           SCF CONVERGED AFTER  12 CYCLES          *
               *****************************************************

Setting up the final grid:

General Integration Accuracy     IntAcc      ...  4.670
Radial Grid Type                 RadialGrid  ... Gauss-Chebyshev
Angular Grid (max. acc.)         AngularGrid ... Lebedev-302
Angular grid pruning method      GridPruning ... 3 (G Style)
Weight generation scheme         WeightScheme... Becke
Basis function cutoff            BFCut       ...    1.0000e-11
Integration weight cutoff        WCut        ...    1.0000e-14
Grids for H and He will be reduced by one unit

# of grid points (after initial pruning)     ...  29404 (   0.0 sec)
# of grid points (after weights+screening)   ...  28548 (   0.0 sec)
nearest neighbour list constructed           ...    0.0 sec
Grid point re-assignment to atoms done       ...    0.0 sec
Grid point division into batches done        ...    0.1 sec
Reduced shell lists constructed in    0.2 sec

Total number of grid points                  ...    28548
Total number of batches                      ...      448
Average number of points per batch           ...       63
Average number of grid points per atom       ...     4758
Average number of shells per batch           ...    20.58 (70.96%)
Average number of basis functions per batch  ...    43.42 (71.17%)
Average number of large shells per batch     ...    17.40 (84.55%)
Average number of large basis fcns per batch ...    35.56 (81.90%)
Maximum spatial batch extension              ...  18.75, 18.75, 19.30 au
Average spatial batch extension              ...   3.19,  3.28,  3.38 au

Final grid set up in    0.2 sec
Final integration                            ... done (   0.1 sec)
Change in XC energy                          ...    -0.000265311
Integrated number of electrons               ...    36.000019082
Previous integrated no of electrons          ...    35.998565200
Old exchange energy                            =    -11.050953465 Eh
New exchange energy                            =    -11.050639052 Eh
Exchange energy change after final integration =      0.000314413 Eh
Total energy after final integration           =   -598.688872856 Eh
Final COS-X integration done in                =     0.391 sec

----------------
TOTAL SCF ENERGY
----------------

Total Energy       :         -598.68887286 Eh          -16291.15246 eV

Components:
Nuclear Repulsion  :           95.41131380 Eh            2596.27384 eV
Electronic Energy  :         -694.10018666 Eh          -18887.42630 eV
One Electron Energy:        -1023.01102856 Eh          -27837.54532 eV
Two Electron Energy:          328.91084190 Eh            8950.11902 eV

Virial components:
Potential Energy   :        -1198.82135522 Eh          -32621.58753 eV
Kinetic Energy     :          600.13248237 Eh           16330.43507 eV
Virial Ratio       :            1.99759452


DFT components:
N(Alpha)           :       18.000009541149 electrons
N(Beta)            :       18.000009541149 electrons
N(Total)           :       36.000019082299 electrons
E(X)               :      -33.017085812494 Eh       
E(C)               :       -1.300941086758 Eh       
E(XC)              :      -34.318026899252 Eh       
DFET-embed. en.    :        0.000000000000 Eh       

---------------
SCF CONVERGENCE
---------------

  Last Energy change         ...    6.7769e-10  Tolerance :   1.0000e-08
  Last MAX-Density change    ...    3.5527e-15  Tolerance :   1.0000e-07
  Last RMS-Density change    ...    1.0805e-16  Tolerance :   5.0000e-09
  Last Orbital Gradient      ...    2.5491e-07  Tolerance :   1.0000e-05
  Last Orbital Rotation      ...    2.4317e-07  Tolerance :   1.0000e-05

             **** THE GBW FILE WAS UPDATED (test_ts_reopt_optts_forwards_displacement_orca.gbw) ****
             **** DENSITY FILE WAS UPDATED (test_ts_reopt_optts_forwards_displacement_orca.scfp.tmp) ****
             **** ENERGY FILE WAS UPDATED (test_ts_reopt_optts_forwards_displacement_orca.en.tmp) ****
----------------
ORBITAL ENERGIES
----------------

  NO   OCC          E(Eh)            E(eV) 
   0   2.0000    -101.304363     -2756.6319 
   1   2.0000     -24.791724      -674.6171 
   2   2.0000     -10.220886      -278.1244 
   3   2.0000      -9.150824      -249.0066 
   4   2.0000      -6.887864      -187.4283 
   5   2.0000      -6.885865      -187.3739 
   6   2.0000      -6.885852      -187.3736 
   7   2.0000      -1.511181       -41.1213 
   8   2.0000      -0.678717       -18.4688 
   9   2.0000      -0.643012       -17.4972 
  10   2.0000      -0.642012       -17.4700 
  11   2.0000      -0.450386       -12.2556 
  12   2.0000      -0.334781        -9.1098 
  13   2.0000      -0.053863        -1.4657 
  14   2.0000      -0.042715        -1.1623 
  15   2.0000       0.007276         0.1980 
  16   2.0000       0.018825         0.5123 
  17   2.0000       0.022475         0.6116 
  18   0.0000       0.237884         6.4732 
  19   0.0000       0.319782         8.7017 
  20   0.0000       0.333844         9.0843 
  21   0.0000       0.340089         9.2543 
  22   0.0000       0.623643        16.9702 
  23   0.0000       0.627944        17.0872 
  24   0.0000       0.696480        18.9522 
  25   0.0000       0.723761        19.6945 
  26   0.0000       0.724661        19.7190 
  27   0.0000       0.825214        22.4552 
  28   0.0000       0.958298        26.0766 
  29   0.0000       1.057789        28.7839 
  30   0.0000       1.146237        31.1907 
  31   0.0000       1.146534        31.1988 
  32   0.0000       1.154694        31.4208 
  33   0.0000       1.154998        31.4291 
  34   0.0000       1.171392        31.8752 
  35   0.0000       1.232723        33.5441 
  36   0.0000       1.234525        33.5931 
  37   0.0000       1.312680        35.7198 
  38   0.0000       1.314521        35.7699 
  39   0.0000       1.343526        36.5592 
  40   0.0000       1.475975        40.1633 
  41   0.0000       1.525955        41.5234 
  42   0.0000       1.544270        42.0217 
  43   0.0000       1.666534        45.3487 
  44   0.0000       1.703124        46.3444 
  45   0.0000       1.723310        46.8937 
  46   0.0000       1.739713        47.3400 
  47   0.0000       1.895973        51.5921 
  48   0.0000       1.909706        51.9658 
  49   0.0000       2.013436        54.7884 
  50   0.0000       2.044559        55.6353 
  51   0.0000       2.083583        56.6972 
  52   0.0000       2.383472        64.8576 
  53   0.0000       2.614245        71.1372 
  54   0.0000       2.683844        73.0311 
  55   0.0000       3.260735        88.7291 
  56   0.0000       3.276444        89.1566 
  57   0.0000       3.388637        92.2095 
  58   0.0000       4.138692       112.6195 
  59   0.0000       4.164367       113.3182 
  60   0.0000       4.415031       120.1391 

                    ********************************
                    * MULLIKEN POPULATION ANALYSIS *
                    ********************************

-----------------------
MULLIKEN ATOMIC CHARGES
-----------------------
   0 F :    0.511091
   1 C :   -0.435770
   2 Cl:   -0.759971
   3 H :   -0.088908
   4 H :   -0.113816
   5 H :   -0.112626
Sum of atomic charges:   -1.0000000

--------------------------------
MULLIKEN REDUCED ORBITAL CHARGES
--------------------------------
  0 F s       :     3.586499  s :     3.586499
      pz      :     1.674175  p :     4.868188
      px      :     1.519244
      py      :     1.674768
      dz2     :     0.002835  d :     0.034222
      dxz     :     0.011497
      dyz     :     0.000031
      dx2y2   :     0.008360
      dxy     :     0.011499
  1 C s       :     3.397402  s :     3.397402
      pz      :     0.996314  p :     2.878052
      px      :     0.885927
      py      :     0.995811
      dz2     :     0.009843  d :     0.160316
      dxz     :     0.062006
      dyz     :     0.001721
      dx2y2   :     0.024523
      dxy     :     0.062223
  2 Cls       :     5.988155  s :     5.988155
      pz      :     3.968910  p :    11.769826
      px      :     3.831711
      py      :     3.969204
      dz2     :     0.000088  d :     0.001990
      dxz     :     0.000811
      dyz     :     0.000064
      dx2y2   :     0.000231
      dxy     :     0.000796
  3 H s       :     1.072971  s :     1.072971
      pz      :     0.003161  p :     0.015937
      px      :     0.009558
      py      :     0.003218
  4 H s       :     1.100076  s :     1.100076
      pz      :     0.003495  p :     0.013739
      px      :     0.008444
      py      :     0.001801
  5 H s       :     1.098799  s :     1.098799
      pz      :     0.001825  p :     0.013828
      px      :     0.008529
      py      :     0.003473


                     *******************************
                     * LOEWDIN POPULATION ANALYSIS *
                     *******************************

----------------------
LOEWDIN ATOMIC CHARGES
----------------------
   0 F :    0.549568
   1 C :   -0.459826
   2 Cl:   -0.741513
   3 H :   -0.101843
   4 H :   -0.123758
   5 H :   -0.122629

-------------------------------
LOEWDIN REDUCED ORBITAL CHARGES
-------------------------------
  0 F s       :     3.395092  s :     3.395092
      pz      :     1.616204  p :     4.975849
      px      :     1.743140
      py      :     1.616505
      dz2     :     0.008595  d :     0.079490
      dxz     :     0.022674
      dyz     :     0.000027
      dx2y2   :     0.025508
      dxy     :     0.022686
  1 C s       :     2.985200  s :     2.985200
      pz      :     0.999322  p :     3.033579
      px      :     1.035035
      py      :     0.999222
      dz2     :     0.027586  d :     0.441047
      dxz     :     0.169054
      dyz     :     0.002627
      dx2y2   :     0.071803
      dxy     :     0.169977
  2 Cls       :     5.975497  s :     5.975497
      pz      :     3.973227  p :    11.763399
      px      :     3.816629
      py      :     3.973542
      dz2     :     0.000073  d :     0.002617
      dxz     :     0.001152
      dyz     :     0.000096
      dx2y2   :     0.000166
      dxy     :     0.001130
  3 H s       :     1.057196  s :     1.057196
      pz      :     0.011085  p :     0.044647
      px      :     0.022206
      py      :     0.011356
  4 H s       :     1.088469  s :     1.088469
      pz      :     0.011315  p :     0.035288
      px      :     0.019416
      py      :     0.004557
  5 H s       :     1.087030  s :     1.087030
      pz      :     0.004645  p :     0.035598
      px      :     0.019613
      py      :     0.011340


                      *****************************
                      * MAYER POPULATION ANALYSIS *
                      *****************************

  NA   - Mulliken gross atomic population
  ZA   - Total nuclear charge
  QA   - Mulliken gross atomic charge
  VA   - Mayer's total valence
  BVA  - Mayer's bonded valence
  FA   - Mayer's free valence

  ATOM       NA         ZA         QA         VA         BVA        FA
  0 F      8.4889     9.0000     0.5111     1.8452     1.8452    -0.0000
  1 C      6.4358     6.0000    -0.4358     4.2012     4.2012     0.0000
  2 Cl    17.7600    17.0000    -0.7600     0.4380     0.4380     0.0000
  3 H      1.0889     1.0000    -0.0889     0.9840     0.9840     0.0000
  4 H      1.1138     1.0000    -0.1138     0.9807     0.9807     0.0000
  5 H      1.1126     1.0000    -0.1126     0.9810     0.9810    -0.0000

  Mayer bond orders larger than 0.1
B(  0-F ,  1-C ) :   1.7260 B(  1-C ,  3-H ) :   0.8045 B(  1-C ,  4-H ) :   0.7966 
B(  1-C ,  5-H ) :   0.7969 B(  2-Cl,  3-H ) :   0.1204 B(  2-Cl,  4-H ) :   0.1216 
B(  2-Cl,  5-H ) :   0.1216 

-------
TIMINGS
-------

Total SCF time: 0 days 0 hours 0 min 5 sec 

Total time                  ....       5.539 sec
Sum of individual times     ....       5.282 sec  ( 95.4%)

Fock matrix formation       ....       4.714 sec  ( 85.1%)
  Split-RI-J                ....       1.365 sec  ( 29.0% of F)
  Chain of spheres X        ....       2.780 sec  ( 59.0% of F)
  COS-X 1 center corr.      ....       0.000 sec  (  0.0% of F)
  XC integration            ....       0.552 sec  ( 11.7% of F)
    Basis function eval.    ....       0.228 sec  ( 41.3% of XC)
    Density eval.           ....       0.082 sec  ( 14.9% of XC)
    XC-Functional eval.     ....       0.107 sec  ( 19.4% of XC)
    XC-Potential eval.      ....       0.100 sec  ( 18.2% of XC)
Diagonalization             ....       0.003 sec  (  0.1%)
Density matrix formation    ....       0.000 sec  (  0.0%)
Population analysis         ....       0.001 sec  (  0.0%)
Initial guess               ....       0.161 sec  (  2.9%)
Orbital Transformation      ....       0.000 sec  (  0.0%)
Orbital Orthonormalization  ....       0.000 sec  (  0.0%)
DIIS solution               ....       0.001 sec  (  0.0%)
SOSCF solution              ....       0.002 sec  (  0.0%)
Grid generation             ....       0.400 sec  (  7.2%)


-------------------------------------------------------------------------------
                          DFT DISPERSION CORRECTION                            
                                                                               
                              DFTD3 V3.1  Rev 1                                
                          USING Becke-Johnson damping                          
-------------------------------------------------------------------------------
The PBE0 functional is recognized
Active option DFTDOPT                   ...         4   

molecular C6(AA) [au] = 611.917808 


            DFT-D V3
 parameters
 s6 scaling factor         :     1.0000 
 a1 scaling factor         :     0.4145 
 s8 scaling factor         :     1.2177 
 a2 scaling factor         :     4.8593 
 ad hoc parameters k1-k3   :    16.0000     1.3333    -4.0000 

 Edisp/kcal,au: -2.012447526415  -0.003207038929 
 E6   /kcal   :  -1.278806159 
 E8   /kcal   :  -0.733641367 
 % E8         :  36.455179945 

-------------------------   ----------------
Dispersion correction           -0.003207039
-------------------------   ----------------


-------------------------   --------------------
FINAL SINGLE POINT ENERGY      -598.692079895099
-------------------------   --------------------

------------------------------------------------------------------------------
                         ORCA SCF GRADIENT CALCULATION
------------------------------------------------------------------------------

Gradient of the Kohn-Sham DFT energy:
Kohn-Sham wavefunction type      ... RKS
Hartree-Fock exchange scaling    ...    0.250
Number of operators              ...    1
Number of atoms                  ...    6
Basis set dimensions             ...   61
Integral neglect threshold       ... 2.5e-11
Integral primitive cutoff        ... 2.5e-12

Nuclear repulsion gradient       ... done
One Electron Gradient            ... done
Pre-screening matrix             ... done
RI-J gradient                    ... done
COSX-gradient                    ... done
Exchange-correlation gradient    ... done
Dispersion correction            ... done

------------------
CARTESIAN GRADIENT
------------------

   1   F   :    2.262082249    0.075236003   -0.091725668
   2   C   :   -2.399276205   -0.083410429    0.101142283
   3   Cl  :   -0.003151408    0.000359116   -0.000391219
   4   H   :    0.046324644   -0.021654657    0.020860727
   5   H   :    0.047094982   -0.006287609   -0.036687712
   6   H   :    0.047394806    0.036203566    0.006220832

Difference to translation invariance:
           :    0.0004690677    0.0004459906   -0.0005807572

Norm of the cartesian gradient     ...    3.3037952306
RMS gradient                       ...    0.7787120037
MAX gradient                       ...    2.3992762048

-------
TIMINGS
-------

Total SCF gradient time            ...        1.427 sec

One electron gradient       ....       0.008 sec  (  0.5%)
Prescreening matrices       ....       0.015 sec  (  1.1%)
RI-J Coulomb gradient       ....       0.119 sec  (  8.4%)
COSX gradient               ....       0.371 sec  ( 26.0%)
XC gradient                 ....       0.414 sec  ( 29.0%)
------------------------------------------------------------------------------
                         ORCA GEOMETRY RELAXATION STEP
------------------------------------------------------------------------------

Reading the OPT-File                    .... done
Getting information on internals        .... done
Copying old internal coords+grads       .... done
Making the new internal coordinates     .... (new redundants).... done
Validating the new internal coordinates .... (new redundants).... done
Calculating the B-matrix                .... done
Calculating the G,G- and P matrices     .... done
Transforming gradient to internals      .... done
Projecting the internal gradient        .... done
Number of atoms                         ....   6
Number of internal coordinates          ....  17
Current Energy                          ....  -598.692079895 Eh
Current gradient norm                   ....     3.303795231 Eh/bohr
Maximum allowed component of the step   ....  0.300
Current trust radius                    ....  0.300
Evaluating the initial hessian          ....  (Almloef) done
Projecting the Hessian                  .... done
Forming the augmented Hessian           .... done
Diagonalizing the augmented Hessian     .... done
Last element of RFO vector              ....  0.820776736
Lowest eigenvalues of augmented Hessian:
 -0.066475056  0.019963813  0.020835169  0.068454255  0.083575484
Length of the computed step             ....  0.695985994
Warning: the length of the step is outside the trust region - taking restricted step instead
The input lambda is                     ....    -0.066475
   iter:   1  x=   -0.121628  g=    7.151003 f(x)=     0.394397
   iter:   2  x=   -0.182424  g=    2.555428 f(x)=     0.155360
   iter:   3  x=   -0.228731  g=    1.116756 f(x)=     0.051715
   iter:   4  x=   -0.245611  g=    0.674505 f(x)=     0.011386
   iter:   5  x=   -0.247174  g=    0.572276 f(x)=     0.000894
   iter:   6  x=   -0.247186  g=    0.563887 f(x)=     0.000007
   iter:   7  x=   -0.247186  g=    0.563825 f(x)=     0.000000
   iter:   8  x=   -0.247186  g=    0.563825 f(x)=     0.000000
The output lambda is                    ....    -0.247186 (8 iterations)
The final length of the internal step   ....  0.300000000
Converting the step to cartesian space:
 Initial RMS(Int)=    0.0727606875
Transforming coordinates:
 Iter   0:  RMS(Cart)=    0.0595480743 RMS(Int)=    0.0730758655
 Iter   1:  RMS(Cart)=    0.0006510988 RMS(Int)=    0.0011513028
 Iter   2:  RMS(Cart)=    0.0000233875 RMS(Int)=    0.0000247489
 Iter   3:  RMS(Cart)=    0.0000008074 RMS(Int)=    0.0000009118
 Iter   4:  RMS(Cart)=    0.0000000263 RMS(Int)=    0.0000000314
Imposing constraints:
 Iter   0:  RMS(Cart)=    0.0001280521 RMS(Int)=    0.0003092938
 Iter   1:  RMS(Cart)=    0.0000572781 RMS(Int)=    0.0001383455
 Iter   2:  RMS(Cart)=    0.0000256202 RMS(Int)=    0.0000618812
 Iter   3:  RMS(Cart)=    0.0000114598 RMS(Int)=    0.0000276792
 Iter   4:  RMS(Cart)=    0.0000051259 RMS(Int)=    0.0000123807
 Iter   5:  RMS(Cart)=    0.0000022928 RMS(Int)=    0.0000055378
 Iter   6:  RMS(Cart)=    0.0000010256 RMS(Int)=    0.0000024770
 Iter   7:  RMS(Cart)=    0.0000004587 RMS(Int)=    0.0000011080
 Iter   8:  RMS(Cart)=    0.0000002052 RMS(Int)=    0.0000004956
 Iter   9:  RMS(Cart)=    0.0000000918 RMS(Int)=    0.0000002217
 Iter  10:  RMS(Cart)=    0.0000000411 RMS(Int)=    0.0000000992
CONVERGED
done
Storing new coordinates                 .... done

                                .--------------------.
          ----------------------|Geometry convergence|-------------------------
          Item                value                   Tolerance       Converged
          ---------------------------------------------------------------------
          RMS gradient        0.0233415391            0.0001000000      NO
          MAX gradient        0.0552554130            0.0003000000      NO
          RMS step            0.0727606875            0.0020000000      NO
          MAX step            0.1767674180            0.0040000000      NO
          ........................................................
          Max(Bonds)      0.0935      Max(Angles)    0.46
          Max(Dihed)        0.00      Max(Improp)    0.00
          ---------------------------------------------------------------------

The optimization has not yet converged - more geometry cycles are needed


    ---------------------------------------------------------------------------
                         Redundant Internal Coordinates
                            (Angstroem and degrees)

        Definition                    Value    dE/dq     Step     New-Value
    ----------------------------------------------------------------------------
     1. B(C   1,F   0)                0.8520 -2.265106 -0.0000    0.8520 C 
     2. B(Cl  2,C   1)                3.1581  0.017980  0.0000    3.1581 C 
     3. B(H   3,C   1)                1.4222  0.051980 -0.0769    1.3454   
     4. B(H   3,Cl  2)                2.5828 -0.007150  0.0230    2.6057   
     5. B(H   4,C   1)                1.5461  0.056323 -0.0935    1.4526   
     6. B(H   4,Cl  2)                2.4604 -0.008429  0.0251    2.4855   
     7. B(H   5,C   1)                1.5411  0.056289 -0.0931    1.4480   
     8. B(H   5,Cl  2)                2.4654 -0.008375  0.0250    2.4904   
     9. A(H   3,C   1,H   5)           85.62 -0.007069    0.44     86.06   
    10. A(F   0,C   1,H   4)          129.12  0.004839   -0.30    128.82   
    11. A(H   3,C   1,H   4)           85.48 -0.007216    0.46     85.94   
    12. A(H   4,C   1,H   5)           83.16 -0.006911    0.39     83.54   
    13. A(Cl  2,C   1,H   3)           53.64 -0.005369    0.39     54.03   
    14. A(Cl  2,C   1,H   5)           49.90 -0.004523    0.24     50.14   
    15. A(Cl  2,C   1,H   4)           49.75 -0.004502    0.24     49.99   
    16. A(F   0,C   1,H   3)          128.43  0.004537   -0.26    128.18   
    17. A(F   0,C   1,H   5)          129.13  0.005031   -0.32    128.81   
    ----------------------------------------------------------------------------

         *************************************************************
         *                GEOMETRY OPTIMIZATION CYCLE   2            *
         *************************************************************
---------------------------------
CARTESIAN COORDINATES (ANGSTROEM)
---------------------------------
  F     -1.890716   -0.073891    0.089118
  C     -1.039762   -0.047121    0.056049
  Cl     2.105841    0.136153   -0.155912
  H     -0.156225   -0.773486    0.764506
  H     -0.164193   -0.281568   -1.079108
  H     -0.156589    1.075060    0.295820

----------------------------
CARTESIAN COORDINATES (A.U.)
----------------------------
  NO LB      ZA    FRAG     MASS         X           Y           Z
   0 F     9.0000    0    18.998   -3.572936   -0.139635    0.168408
   1 C     6.0000    0    12.011   -1.964865   -0.089046    0.105918
   2 Cl   17.0000    0    35.453    3.979464    0.257293   -0.294630
   3 H     1.0000    0     1.008   -0.295222   -1.461677    1.444707
   4 H     1.0000    0     1.008   -0.310279   -0.532086   -2.039218
   5 H     1.0000    0     1.008   -0.295910    2.031569    0.559019

--------------------------------
INTERNAL COORDINATES (ANGSTROEM)
--------------------------------
 F      0   0   0     0.000000000000     0.00000000     0.00000000
 C      1   0   0     0.852017173862     0.00000000     0.00000000
 Cl     2   1   0     3.158059156113   177.76844504     0.00000000
 H      2   1   3     1.345420080117   128.20522970   182.21705974
 H      2   1   4     1.452642036266   128.84746211   121.13876508
 H      2   1   4     1.448024406374   128.83488884   238.64467406

---------------------------
INTERNAL COORDINATES (A.U.)
---------------------------
 F      0   0   0     0.000000000000     0.00000000     0.00000000
 C      1   0   0     1.610079119997     0.00000000     0.00000000
 Cl     2   1   0     5.967866919775   177.76844504     0.00000000
 H      2   1   3     2.542475486499   128.20522970   182.21705974
 H      2   1   4     2.745095619165   128.84746211   121.13876508
 H      2   1   4     2.736369563281   128.83488884   238.64467406

 One Electron integrals                  ... done
 Pre-screening matrix                    ... done

Diagonalization of the overlap matrix:
Smallest eigenvalue                        ... 1.258e-02
Time for diagonalization                   ...    0.001 sec
Threshold for overlap eigenvalues          ... 1.000e-08
Number of eigenvalues below threshold      ... 0
Time for construction of square roots      ...    0.000 sec
Total time needed                          ...    0.002 sec

-------------------
DFT GRID GENERATION
-------------------

General Integration Accuracy     IntAcc      ...  4.340
Radial Grid Type                 RadialGrid  ... Gauss-Chebyshev
Angular Grid (max. acc.)         AngularGrid ... Lebedev-110
Angular grid pruning method      GridPruning ... 3 (G Style)
Weight generation scheme         WeightScheme... Becke
Basis function cutoff            BFCut       ...    1.0000e-11
Integration weight cutoff        WCut        ...    1.0000e-14
Grids for H and He will be reduced by one unit

# of grid points (after initial pruning)     ...   7622 (   0.0 sec)
# of grid points (after weights+screening)   ...   7417 (   0.0 sec)
nearest neighbour list constructed           ...    0.0 sec
Grid point re-assignment to atoms done       ...    0.0 sec
Grid point division into batches done        ...    0.0 sec
Reduced shell lists constructed in    0.0 sec

Total number of grid points                  ...     7417
Total number of batches                      ...      119
Average number of points per batch           ...       62
Average number of grid points per atom       ...     1236
Average number of shells per batch           ...    22.57 (77.82%)
Average number of basis functions per batch  ...    47.62 (78.06%)
Average number of large shells per batch     ...    19.53 (86.56%)
Average number of large basis fcns per batch ...    40.25 (84.53%)
Maximum spatial batch extension              ...  19.83, 25.60, 21.16 au
Average spatial batch extension              ...   4.75,  5.15,  4.96 au

Time for grid setup =    0.030 sec

--------------------
COSX GRID GENERATION
--------------------

General Integration Accuracy     IntAcc      ...  3.340
Radial Grid Type                 RadialGrid  ... Gauss-Chebyshev
Angular Grid (max. acc.)         AngularGrid ... Lebedev-50
Angular grid pruning method      GridPruning ... 3 (G Style)
Weight generation scheme         WeightScheme... Becke
Basis function cutoff            BFCut       ...    1.0000e-11
Integration weight cutoff        WCut        ...    1.0000e-14
Grids for H and He will be reduced by one unit

# of grid points (after initial pruning)     ...   2826 (   0.0 sec)
# of grid points (after weights+screening)   ...   2748 (   0.0 sec)
nearest neighbour list constructed           ...    0.0 sec
Grid point re-assignment to atoms done       ...    0.0 sec
Grid point division into batches done        ...    0.0 sec
Reduced shell lists constructed in    0.0 sec

Total number of grid points                  ...     2748
Total number of batches                      ...       46
Average number of points per batch           ...       59
Average number of grid points per atom       ...      458
Average number of shells per batch           ...    24.02 (82.83%)
Average number of basis functions per batch  ...    51.43 (84.30%)
Average number of large shells per batch     ...    21.49 (89.46%)
Average number of large basis fcns per batch ...    44.98 (87.46%)
Maximum spatial batch extension              ...  17.39, 20.72, 20.72 au
Average spatial batch extension              ...   6.03,  7.05,  6.93 au

Overlap Fitting                  UseSFitting ... on
Constructing numerical overlap ... done (      0.0 sec)
Inverting numerical overlap    ... done (      0.0 sec)
Obtaining analytic overlap     ... done (      0.0 sec)
Final contraction and storage  ... done (      0.0 sec)


General Integration Accuracy     IntAcc      ...  3.670
Radial Grid Type                 RadialGrid  ... Gauss-Chebyshev
Angular Grid (max. acc.)         AngularGrid ... Lebedev-50
Angular grid pruning method      GridPruning ... 3 (G Style)
Weight generation scheme         WeightScheme... Becke
Basis function cutoff            BFCut       ...    1.0000e-11
Integration weight cutoff        WCut        ...    1.0000e-14
Grids for H and He will be reduced by one unit

# of grid points (after initial pruning)     ...   3566 (   0.0 sec)
# of grid points (after weights+screening)   ...   3467 (   0.0 sec)
nearest neighbour list constructed           ...    0.0 sec
Grid point re-assignment to atoms done       ...    0.0 sec
Grid point division into batches done        ...    0.0 sec
Reduced shell lists constructed in    0.0 sec

Total number of grid points                  ...     3467
Total number of batches                      ...       57
Average number of points per batch           ...       60
Average number of grid points per atom       ...      578
Average number of shells per batch           ...    24.07 (83.00%)
Average number of basis functions per batch  ...    51.34 (84.17%)
Average number of large shells per batch     ...    21.16 (87.89%)
Average number of large basis fcns per batch ...    44.29 (86.27%)
Maximum spatial batch extension              ...  18.28, 22.67, 22.67 au
Average spatial batch extension              ...   5.74,  6.16,  6.21 au

Overlap Fitting                  UseSFitting ... on
Constructing numerical overlap ... done (      0.0 sec)
Inverting numerical overlap    ... done (      0.0 sec)
Obtaining analytic overlap     ... done (      0.0 sec)
Final contraction and storage  ... done (      0.0 sec)


General Integration Accuracy     IntAcc      ...  4.010
Radial Grid Type                 RadialGrid  ... Gauss-Chebyshev
Angular Grid (max. acc.)         AngularGrid ... Lebedev-110
Angular grid pruning method      GridPruning ... 3 (G Style)
Weight generation scheme         WeightScheme... Becke
Basis function cutoff            BFCut       ...    1.0000e-11
Integration weight cutoff        WCut        ...    1.0000e-14
Grids for H and He will be reduced by one unit

# of grid points (after initial pruning)     ...   6574 (   0.0 sec)
# of grid points (after weights+screening)   ...   6405 (   0.0 sec)
nearest neighbour list constructed           ...    0.0 sec
Grid point re-assignment to atoms done       ...    0.0 sec
Grid point division into batches done        ...    0.0 sec
Reduced shell lists constructed in    0.0 sec

Total number of grid points                  ...     6405
Total number of batches                      ...      103
Average number of points per batch           ...       62
Average number of grid points per atom       ...     1068
Average number of shells per batch           ...    22.88 (78.88%)
Average number of basis functions per batch  ...    48.34 (79.24%)
Average number of large shells per batch     ...    19.84 (86.72%)
Average number of large basis fcns per batch ...    41.07 (84.96%)
Maximum spatial batch extension              ...  20.25, 24.23, 19.38 au
Average spatial batch extension              ...   5.06,  5.52,  5.28 au

Overlap Fitting                  UseSFitting ... on
Constructing numerical overlap ... done (      0.0 sec)
Inverting numerical overlap    ... done (      0.0 sec)
Obtaining analytic overlap     ... done (      0.0 sec)
Final contraction and storage  ... done (      0.0 sec)

Time for X-Grid setup             =    0.138 sec
--------------
SCF ITERATIONS
--------------
ITER       Energy         Delta-E        Max-DP      RMS-DP      [F,P]     Damp
               ***  Starting incremental Fock matrix formation  ***
  0   -598.7149818896   0.000000000000 0.00638688  0.00040406  0.0137829 0.7000
                      *** Initiating the SOSCF procedure ***
                      *** Re-Reading the Fockian *** 
                      *** Removing any level shift *** 
ITER      Energy       Delta-E        Grad      Rot      Max-DP    RMS-DP
  1   -598.71554147  -0.0005595815  0.002115  0.002115  0.017090  0.001224
               *** Restarting incremental Fock matrix formation ***
  2   -598.71685054  -0.0013090660  0.003544  0.009013  0.014641  0.000618
  3   -598.71685879  -0.0000082499  0.003199  0.003258  0.005753  0.000331
  4   -598.71696698  -0.0001081920  0.000449  0.000778  0.001481  0.000078
  5   -598.71696708  -0.0000001045  0.000605  0.000335  0.000861  0.000040
  6   -598.71696982  -0.0000027316  0.000021  0.000023  0.000063  0.000004
  7   -598.71696980   0.0000000137  0.000008  0.000007  0.000024  0.000001
                  ***Gradient check signals convergence***
              ***Rediagonalizing the Fockian in SOSCF/NRSCF***

               *****************************************************
               *                     SUCCESS                       *
               *           SCF CONVERGED AFTER   8 CYCLES          *
               *****************************************************

Setting up the final grid:

General Integration Accuracy     IntAcc      ...  4.670
Radial Grid Type                 RadialGrid  ... Gauss-Chebyshev
Angular Grid (max. acc.)         AngularGrid ... Lebedev-302
Angular grid pruning method      GridPruning ... 3 (G Style)
Weight generation scheme         WeightScheme... Becke
Basis function cutoff            BFCut       ...    1.0000e-11
Integration weight cutoff        WCut        ...    1.0000e-14
Grids for H and He will be reduced by one unit

# of grid points (after initial pruning)     ...  29404 (   0.0 sec)
# of grid points (after weights+screening)   ...  28531 (   0.0 sec)
nearest neighbour list constructed           ...    0.0 sec
Grid point re-assignment to atoms done       ...    0.0 sec
Grid point division into batches done        ...    0.1 sec
Reduced shell lists constructed in    0.2 sec

Total number of grid points                  ...    28531
Total number of batches                      ...      450
Average number of points per batch           ...       63
Average number of grid points per atom       ...     4755
Average number of shells per batch           ...    20.68 (71.31%)
Average number of basis functions per batch  ...    43.56 (71.41%)
Average number of large shells per batch     ...    17.57 (84.96%)
Average number of large basis fcns per batch ...    35.96 (82.57%)
Maximum spatial batch extension              ...  17.32, 23.02, 20.35 au
Average spatial batch extension              ...   3.14,  3.34,  3.35 au

Final grid set up in    0.2 sec
Final integration                            ... done (   0.1 sec)
Change in XC energy                          ...    -0.000262641
Integrated number of electrons               ...    36.000024244
Previous integrated no of electrons          ...    35.998871017
Old exchange energy                            =    -11.068725778 Eh
New exchange energy                            =    -11.068346244 Eh
Exchange energy change after final integration =      0.000379534 Eh
Total energy after final integration           =   -598.716852916 Eh
Final COS-X integration done in                =     0.389 sec
Total Energy       :         -598.71685292 Eh          -16291.91383 eV
  Last Energy change         ...   -8.0300e-09  Tolerance :   1.0000e-08
  Last MAX-Density change    ...    3.5527e-15  Tolerance :   1.0000e-07
             **** THE GBW FILE WAS UPDATED (test_ts_reopt_optts_forwards_displacement_orca.gbw) ****
             **** DENSITY FILE WAS UPDATED (test_ts_reopt_optts_forwards_displacement_orca.scfp.tmp) ****
             **** ENERGY FILE WAS UPDATED (test_ts_reopt_optts_forwards_displacement_orca.en.tmp) ****
Total SCF time: 0 days 0 hours 0 min 4 sec 


-------------------------------------------------------------------------------
                          DFT DISPERSION CORRECTION                            
                                                                               
                              DFTD3 V3.1  Rev 1                                
                          USING Becke-Johnson damping                          
-------------------------------------------------------------------------------
-------------------------   ----------------
Dispersion correction           -0.002825868
-------------------------   ----------------


-------------------------   --------------------
FINAL SINGLE POINT ENERGY      -598.719678783731
-------------------------   --------------------

------------------------------------------------------------------------------
                         ORCA SCF GRADIENT CALCULATION
------------------------------------------------------------------------------

Gradient of the Kohn-Sham DFT energy:
Kohn-Sham wavefunction type      ... RKS
Hartree-Fock exchange scaling    ...    0.250
Number of operators              ...    1
Number of atoms                  ...    6
Basis set dimensions             ...   61
Integral neglect threshold       ... 2.5e-11
Integral primitive cutoff        ... 2.5e-12

Nuclear repulsion gradient       ... done
One Electron Gradient            ... done
Pre-screening matrix             ... done
RI-J gradient                    ... done
COSX-gradient                    ... done
Exchange-correlation gradient    ... done
Dispersion correction            ... done

------------------
CARTESIAN GRADIENT
------------------

   1   F   :    2.293522355    0.071181181   -0.088221664
   2   C   :   -2.425758965   -0.080428368    0.098717207
   3   Cl  :   -0.003681208    0.000362486   -0.000371099
   4   H   :    0.042994595   -0.016765298    0.016100200
   5   H   :    0.046645327   -0.005066440   -0.031562152
   6   H   :    0.046764549    0.030989406    0.004943052

Difference to translation invariance:
           :    0.0004866523    0.0002729663   -0.0003944564

Norm of the cartesian gradient     ...    3.3440076182
RMS gradient                       ...    0.7881901544
MAX gradient                       ...    2.4257589647

-------
TIMINGS
-------

Total SCF gradient time            ...        1.234 sec

One electron gradient       ....       0.007 sec  (  0.6%)
Prescreening matrices       ....       0.014 sec  (  1.1%)
RI-J Coulomb gradient       ....       0.119 sec  (  9.7%)
COSX gradient               ....       0.371 sec  ( 30.1%)
XC gradient                 ....       0.412 sec  ( 33.4%)
------------------------------------------------------------------------------
                         ORCA GEOMETRY RELAXATION STEP
------------------------------------------------------------------------------

Reading the OPT-File                    .... done
Getting information on internals        .... done
Copying old internal coords+grads       .... done
Making the new internal coordinates     .... (new redundants).... done
Validating the new internal coordinates .... (new redundants).... done
Calculating the B-matrix                .... done
Calculating the G,G- and P matrices     .... done
Transforming gradient to internals      .... done
Projecting the internal gradient        .... done
Number of atoms                         ....   6
Number of internal coordinates          ....  17
Current Energy                          ....  -598.719678784 Eh
Current gradient norm                   ....     3.344007618 Eh/bohr
Maximum allowed component of the step   ....  0.300
Current trust radius                    ....  0.300
Updating the Hessian (BFGS)             .... done
Forming the augmented Hessian           .... done
Diagonalizing the augmented Hessian     .... done
Last element of RFO vector              ....  0.757691629
Lowest eigenvalues of augmented Hessian:
 -0.074245753  0.019963886  0.020902104  0.068454940  0.087203655
Length of the computed step             ....  0.861317086
Warning: the length of the step is outside the trust region - taking restricted step instead
The input lambda is                     ....    -0.074246
   iter:   1  x=   -0.117866  g=   14.944022 f(x)=     0.651867
   iter:   2  x=   -0.171590  g=    5.000232 f(x)=     0.268629
   iter:   3  x=   -0.223622  g=    1.921959 f(x)=     0.100005
   iter:   4  x=   -0.254212  g=    0.952373 f(x)=     0.029133
   iter:   5  x=   -0.261039  g=    0.673321 f(x)=     0.004597
   iter:   6  x=   -0.261299  g=    0.626440 f(x)=     0.000163
   iter:   7  x=   -0.261299  g=    0.624745 f(x)=     0.000000
   iter:   8  x=   -0.261299  g=    0.624743 f(x)=     0.000000
   iter:   9  x=   -0.261299  g=    0.624743 f(x)=     0.000000
The output lambda is                    ....    -0.261299 (9 iterations)
The final length of the internal step   ....  0.300000000
Converting the step to cartesian space:
 Initial RMS(Int)=    0.0727606875
Transforming coordinates:
 Iter   0:  RMS(Cart)=    0.0571778846 RMS(Int)=    0.0731223917
 Iter   1:  RMS(Cart)=    0.0007046006 RMS(Int)=    0.0011438352
 Iter   2:  RMS(Cart)=    0.0000297332 RMS(Int)=    0.0000310861
 Iter   3:  RMS(Cart)=    0.0000010620 RMS(Int)=    0.0000012130
 Iter   4:  RMS(Cart)=    0.0000000352 RMS(Int)=    0.0000000417
Imposing constraints:
 Iter   0:  RMS(Cart)=    0.0001368104 RMS(Int)=    0.0003779578
 Iter   1:  RMS(Cart)=    0.0000649620 RMS(Int)=    0.0001794612
 Iter   2:  RMS(Cart)=    0.0000308451 RMS(Int)=    0.0000852114
 Iter   3:  RMS(Cart)=    0.0000146458 RMS(Int)=    0.0000404599
 Iter   4:  RMS(Cart)=    0.0000069541 RMS(Int)=    0.0000192111
 Iter   5:  RMS(Cart)=    0.0000033019 RMS(Int)=    0.0000091218
 Iter   6:  RMS(Cart)=    0.0000015678 RMS(Int)=    0.0000043312
 Iter   7:  RMS(Cart)=    0.0000007444 RMS(Int)=    0.0000020565
 Iter   8:  RMS(Cart)=    0.0000003535 RMS(Int)=    0.0000009765
 Iter   9:  RMS(Cart)=    0.0000001678 RMS(Int)=    0.0000004636
 Iter  10:  RMS(Cart)=    0.0000000797 RMS(Int)=    0.0000002201
 Iter  11:  RMS(Cart)=    0.0000000378 RMS(Int)=    0.0000001045
 Iter  12:  RMS(Cart)=    0.0000000180 RMS(Int)=    0.0000000496
CONVERGED
done
Storing new coordinates                 .... done

                                .--------------------.
          ----------------------|Geometry convergence|-------------------------
          Item                value                   Tolerance       Converged
          ---------------------------------------------------------------------
          Energy change      -0.0275988886            0.0000050000      NO
          RMS gradient        0.0210582334            0.0001000000      NO
          MAX gradient        0.0498714329            0.0003000000      NO
          RMS step            0.0727606875            0.0020000000      NO
          MAX step            0.1729946040            0.0040000000      NO
          ........................................................
          Max(Bonds)      0.0915      Max(Angles)    0.82
          Max(Dihed)        0.00      Max(Improp)    0.00
          ---------------------------------------------------------------------

The optimization has not yet converged - more geometry cycles are needed


    ---------------------------------------------------------------------------
                         Redundant Internal Coordinates
                            (Angstroem and degrees)

        Definition                    Value    dE/dq     Step     New-Value
    ----------------------------------------------------------------------------
     1. B(C   1,F   0)                0.8520 -2.296235 -0.0000    0.8520 C 
     2. B(Cl  2,C   1)                3.1581  0.019603 -0.0000    3.1581 C 
     3. B(H   3,C   1)                1.3454  0.044271 -0.0732    1.2722   
     4. B(H   3,Cl  2)                2.6061 -0.007560  0.0291    2.6351   
     5. B(H   4,C   1)                1.4526  0.051362 -0.0915    1.3611   
     6. B(H   4,Cl  2)                2.4859 -0.009220  0.0320    2.5179   
     7. B(H   5,C   1)                1.4480  0.051171 -0.0909    1.3571   
     8. B(H   5,Cl  2)                2.4908 -0.009159  0.0319    2.5227   
     9. A(H   3,C   1,H   5)           86.02 -0.008725    0.80     86.83   
    10. A(F   0,C   1,H   4)          128.85  0.006574   -0.65    128.20   
    11. A(H   3,C   1,H   4)           85.90 -0.008820    0.82     86.72   
    12. A(H   4,C   1,H   5)           83.50 -0.008613    0.71     84.21   
    13. A(Cl  2,C   1,H   3)           54.02 -0.006702    0.64     54.67   
    14. A(Cl  2,C   1,H   5)           50.11 -0.005576    0.47     50.58   
    15. A(Cl  2,C   1,H   4)           49.95 -0.005537    0.47     50.42   
    16. A(F   0,C   1,H   3)          128.21  0.004667   -0.29    127.91   
    17. A(F   0,C   1,H   5)          128.83  0.006619   -0.65    128.18   
    ----------------------------------------------------------------------------

         *************************************************************
         *                GEOMETRY OPTIMIZATION CYCLE   3            *
         *************************************************************
---------------------------------
CARTESIAN COORDINATES (ANGSTROEM)
---------------------------------
  F     -1.859980   -0.067961    0.082734
  C     -1.008782   -0.044857    0.053383
  Cl     2.136659    0.139697   -0.159876
  H     -0.183660   -0.737905    0.729779
  H     -0.196577   -0.266713   -1.016189
  H     -0.189304    1.012887    0.280641

----------------------------
CARTESIAN COORDINATES (A.U.)
----------------------------
  NO LB      ZA    FRAG     MASS         X           Y           Z
   0 F     9.0000    0    18.998   -3.514852   -0.128427    0.156345
   1 C     6.0000    0    12.011   -1.906321   -0.084768    0.100879
   2 Cl   17.0000    0    35.453    4.037701    0.263988   -0.302121
   3 H     1.0000    0     1.008   -0.347067   -1.394437    1.379082
   4 H     1.0000    0     1.008   -0.371476   -0.504015   -1.920319
   5 H     1.0000    0     1.008   -0.357733    1.914078    0.530335

--------------------------------
INTERNAL COORDINATES (ANGSTROEM)
--------------------------------
 F      0   0   0     0.000000000000     0.00000000     0.00000000
 C      1   0   0     0.852017173862     0.00000000     0.00000000
 Cl     2   1   0     3.158059193172   177.38380876     0.00000000
 H      2   1   3     1.272262460741   127.94010580   182.00636065
 H      2   1   4     1.361205675681   128.22533955   121.35952388
 H      2   1   4     1.357207329708   128.21255759   238.44758919

---------------------------
INTERNAL COORDINATES (A.U.)
---------------------------
 F      0   0   0     0.000000000000     0.00000000     0.00000000
 C      1   0   0     1.610079119997     0.00000000     0.00000000
 Cl     2   1   0     5.967866989808   177.38380876     0.00000000
 H      2   1   3     2.404227621269   127.94010580   182.00636065
 H      2   1   4     2.572305938975   128.22533955   121.35952388
 H      2   1   4     2.564750160099   128.21255759   238.44758919

 One Electron integrals                  ... done
 Pre-screening matrix                    ... done

Diagonalization of the overlap matrix:
Smallest eigenvalue                        ... 1.244e-02
Time for diagonalization                   ...    0.001 sec
Threshold for overlap eigenvalues          ... 1.000e-08
Number of eigenvalues below threshold      ... 0
Time for construction of square roots      ...    0.000 sec
Total time needed                          ...    0.002 sec

-------------------
DFT GRID GENERATION
-------------------

General Integration Accuracy     IntAcc      ...  4.340
Radial Grid Type                 RadialGrid  ... Gauss-Chebyshev
Angular Grid (max. acc.)         AngularGrid ... Lebedev-110
Angular grid pruning method      GridPruning ... 3 (G Style)
Weight generation scheme         WeightScheme... Becke
Basis function cutoff            BFCut       ...    1.0000e-11
Integration weight cutoff        WCut        ...    1.0000e-14
Grids for H and He will be reduced by one unit

# of grid points (after initial pruning)     ...   7622 (   0.0 sec)
# of grid points (after weights+screening)   ...   7411 (   0.0 sec)
nearest neighbour list constructed           ...    0.0 sec
Grid point re-assignment to atoms done       ...    0.0 sec
Grid point division into batches done        ...    0.0 sec
Reduced shell lists constructed in    0.0 sec

Total number of grid points                  ...     7411
Total number of batches                      ...      119
Average number of points per batch           ...       62
Average number of grid points per atom       ...     1235
Average number of shells per batch           ...    22.52 (77.64%)
Average number of basis functions per batch  ...    47.52 (77.90%)
Average number of large shells per batch     ...    19.63 (87.19%)
Average number of large basis fcns per batch ...    40.55 (85.34%)
Maximum spatial batch extension              ...  19.94, 25.60, 21.18 au
Average spatial batch extension              ...   4.84,  5.34,  5.16 au

Time for grid setup =    0.030 sec

--------------------
COSX GRID GENERATION
--------------------

General Integration Accuracy     IntAcc      ...  3.340
Radial Grid Type                 RadialGrid  ... Gauss-Chebyshev
Angular Grid (max. acc.)         AngularGrid ... Lebedev-50
Angular grid pruning method      GridPruning ... 3 (G Style)
Weight generation scheme         WeightScheme... Becke
Basis function cutoff            BFCut       ...    1.0000e-11
Integration weight cutoff        WCut        ...    1.0000e-14
Grids for H and He will be reduced by one unit

# of grid points (after initial pruning)     ...   2826 (   0.0 sec)
# of grid points (after weights+screening)   ...   2748 (   0.0 sec)
nearest neighbour list constructed           ...    0.0 sec
[...]
Average spatial batch extension              ...   5.53,  6.17,  6.28 au

Overlap Fitting                  UseSFitting ... on
Constructing numerical overlap ... done (      0.0 sec)
Inverting numerical overlap    ... done (      0.0 sec)
Obtaining analytic overlap     ... done (      0.0 sec)
Final contraction and storage  ... done (      0.0 sec)


General Integration Accuracy     IntAcc      ...  4.010
Radial Grid Type                 RadialGrid  ... Gauss-Chebyshev
Angular Grid (max. acc.)         AngularGrid ... Lebedev-110
Angular grid pruning method      GridPruning ... 3 (G Style)
Weight generation scheme         WeightScheme... Becke
Basis function cutoff            BFCut       ...    1.0000e-11
Integration weight cutoff        WCut        ...    1.0000e-14
Grids for H and He will be reduced by one unit

# of grid points (after initial pruning)     ...   6574 (   0.0 sec)
# of grid points (after weights+screening)   ...   6393 (   0.0 sec)
nearest neighbour list constructed           ...    0.0 sec
Grid point re-assignment to atoms done       ...    0.0 sec
Grid point division into batches done        ...    0.0 sec
Reduced shell lists constructed in    0.0 sec

Total number of grid points                  ...     6393
Total number of batches                      ...      102
Average number of points per batch           ...       62
Average number of grid points per atom       ...     1066
Average number of shells per batch           ...    22.83 (78.74%)
Average number of basis functions per batch  ...    48.06 (78.78%)
Average number of large shells per batch     ...    19.76 (86.52%)
Average number of large basis fcns per batch ...    40.84 (84.99%)
Maximum spatial batch extension              ...  20.16, 24.23, 19.31 au
Average spatial batch extension              ...   4.84,  5.47,  5.10 au

Overlap Fitting                  UseSFitting ... on
Constructing numerical overlap ... done (      0.0 sec)
Inverting numerical overlap    ... done (      0.0 sec)
Obtaining analytic overlap     ... done (      0.0 sec)
Final contraction and storage  ... done (      0.0 sec)

Time for X-Grid setup             =    0.138 sec
--------------
SCF ITERATIONS
--------------
ITER       Energy         Delta-E        Max-DP      RMS-DP      [F,P]     Damp
               ***  Starting incremental Fock matrix formation  ***
                      *** Initiating the SOSCF procedure ***
                      *** Re-Reading the Fockian *** 
                      *** Removing any level shift *** 
ITER      Energy       Delta-E        Grad      Rot      Max-DP    RMS-DP
  0   -598.77304298 -598.7730429838  0.000258  0.000258  0.000357  0.000021
               *** Restarting incremental Fock matrix formation ***
  1   -598.77304369  -0.0000007035  0.000045  0.000070  0.000101  0.000008
  2   -598.77304373  -0.0000000398  0.000004  0.000012  0.000020  0.000001
                  ***Gradient check signals convergence***
              ***Rediagonalizing the Fockian in SOSCF/NRSCF***

               *****************************************************
               *                     SUCCESS                       *
               *           SCF CONVERGED AFTER   3 CYCLES          *
               *****************************************************

Setting up the final grid:

General Integration Accuracy     IntAcc      ...  4.670
Radial Grid Type                 RadialGrid  ... Gauss-Chebyshev
Angular Grid (max. acc.)         AngularGrid ... Lebedev-302
Angular grid pruning method      GridPruning ... 3 (G Style)
Weight generation scheme         WeightScheme... Becke
Basis function cutoff            BFCut       ...    1.0000e-11
Integration weight cutoff        WCut        ...    1.0000e-14
Grids for H and He will be reduced by one unit

# of grid points (after initial pruning)     ...  29404 (   0.0 sec)
# of grid points (after weights+screening)   ...  28482 (   0.0 sec)
nearest neighbour list constructed           ...    0.0 sec
Grid point re-assignment to atoms done       ...    0.0 sec
Grid point division into batches done        ...    0.1 sec
Reduced shell lists constructed in    0.2 sec

Total number of grid points                  ...    28482
Total number of batches                      ...      448
Average number of points per batch           ...       63
Average number of grid points per atom       ...     4747
Average number of shells per batch           ...    20.63 (71.15%)
Average number of basis functions per batch  ...    43.43 (71.20%)
Average number of large shells per batch     ...    17.63 (85.44%)
Average number of large basis fcns per batch ...    36.10 (83.11%)
Maximum spatial batch extension              ...  18.92, 23.08, 22.85 au
Average spatial batch extension              ...   3.18,  3.31,  3.37 au

Final grid set up in    0.2 sec
Final integration                            ... done (   0.1 sec)
Change in XC energy                          ...    -0.000148001
Integrated number of electrons               ...    36.000051310
Previous integrated no of electrons          ...    35.998135691
Old exchange energy                            =    -11.130436314 Eh
New exchange energy                            =    -11.129797581 Eh
Exchange energy change after final integration =      0.000638733 Eh
Total energy after final integration           =   -598.772552995 Eh
Final COS-X integration done in                =     0.389 sec

----------------
TOTAL SCF ENERGY
----------------

Total Energy       :         -598.77255299 Eh          -16293.42951 eV

Components:
Nuclear Repulsion  :           97.64032025 Eh            2656.92819 eV
Electronic Energy  :         -696.41287325 Eh          -18950.35770 eV
One Electron Energy:        -1028.16161883 Eh          -27977.70001 eV
Two Electron Energy:          331.74874558 Eh            9027.34231 eV

Virial components:
Potential Energy   :        -1199.67662142 Eh          -32644.86050 eV
Kinetic Energy     :          600.90406842 Eh           16351.43099 eV
Virial Ratio       :            1.99645282


DFT components:
N(Alpha)           :       18.000025654932 electrons
N(Beta)            :       18.000025654932 electrons
N(Total)           :       36.000051309863 electrons
E(X)               :      -33.212548086535 Eh       
E(C)               :       -1.312339826523 Eh       
E(XC)              :      -34.524887913058 Eh       
DFET-embed. en.    :        0.000000000000 Eh       

---------------
SCF CONVERGENCE
---------------

  Last Energy change         ...    1.0937e-09  Tolerance :   1.0000e-08
  Last MAX-Density change    ...    1.9984e-15  Tolerance :   1.0000e-07
  Last RMS-Density change    ...    7.8932e-17  Tolerance :   5.0000e-09
  Last Orbital Gradient      ...    1.2109e-06  Tolerance :   1.0000e-05
  Last Orbital Rotation      ...    2.2163e-06  Tolerance :   1.0000e-05

             **** THE GBW FILE WAS UPDATED (test_ts_reopt_optts_forwards_displacement_orca.gbw) ****
             **** DENSITY FILE WAS UPDATED (test_ts_reopt_optts_forwards_displacement_orca.scfp.tmp) ****
             **** ENERGY FILE WAS UPDATED (test_ts_reopt_optts_forwards_displacement_orca.en.tmp) ****
----------------
ORBITAL ENERGIES
----------------

  NO   OCC          E(Eh)            E(eV) 
   0   2.0000    -101.277037     -2755.8883 
   1   2.0000     -24.721139      -672.6964 
   2   2.0000     -10.169960      -276.7387 
   3   2.0000      -9.124207      -248.2823 
   4   2.0000      -6.860287      -186.6779 
   5   2.0000      -6.859724      -186.6626 
   6   2.0000      -6.859705      -186.6621 
   7   2.0000      -1.462771       -39.8040 
   8   2.0000      -0.629383       -17.1264 
   9   2.0000      -0.610828       -16.6215 
  10   2.0000      -0.610810       -16.6210 
  11   2.0000      -0.434529       -11.8241 
  12   2.0000      -0.409758       -11.1501 
  13   2.0000      -0.082903        -2.2559 
  14   2.0000      -0.082771        -2.2523 
  15   2.0000       0.030005         0.8165 
  16   2.0000       0.032388         0.8813 
  17   2.0000       0.032422         0.8823 
  18   0.0000       0.272118         7.4047 
  19   0.0000       0.371975        10.1220 
  20   0.0000       0.373238        10.1563 
  21   0.0000       0.388709        10.5773 
  22   0.0000       0.601082        16.3563 
  23   0.0000       0.602648        16.3989 
  24   0.0000       0.786127        21.3916 
  25   0.0000       0.787267        21.4226 
  26   0.0000       0.792644        21.5689 
  27   0.0000       0.829390        22.5689 
  28   0.0000       0.997618        27.1466 
  29   0.0000       1.002972        27.2923 
  30   0.0000       1.167221        31.7617 
  31   0.0000       1.167383        31.7661 
  32   0.0000       1.174949        31.9720 
  33   0.0000       1.175349        31.9829 
  34   0.0000       1.182350        32.1734 
  35   0.0000       1.247239        33.9391 
  36   0.0000       1.247510        33.9465 
  37   0.0000       1.287373        35.0312 
  38   0.0000       1.287640        35.0385 
  39   0.0000       1.358173        36.9578 
  40   0.0000       1.505443        40.9652 
  41   0.0000       1.505739        40.9733 
  42   0.0000       1.559630        42.4397 
  43   0.0000       1.786357        48.6093 
  44   0.0000       1.801488        49.0210 
  45   0.0000       1.954294        53.1791 
  46   0.0000       1.956008        53.2257 
  47   0.0000       1.985667        54.0327 
  48   0.0000       1.986086        54.0441 
  49   0.0000       2.280364        62.0519 
  50   0.0000       2.352318        64.0098 
  51   0.0000       2.353157        64.0327 
  52   0.0000       2.611109        71.0519 
  53   0.0000       2.916592        79.3645 
  54   0.0000       2.917902        79.4002 
  55   0.0000       3.467442        94.3539 
  56   0.0000       3.468917        94.3940 
  57   0.0000       3.500732        95.2598 
  58   0.0000       4.252327       115.7117 
  59   0.0000       4.253526       115.7443 
  60   0.0000       4.469870       121.6313 

                    ********************************
                    * MULLIKEN POPULATION ANALYSIS *
                    ********************************

-----------------------
MULLIKEN ATOMIC CHARGES
-----------------------
   0 F :    0.404232
   1 C :   -0.132786
   2 Cl:   -0.871789
   3 H :   -0.131368
   4 H :   -0.133996
   5 H :   -0.134292
Sum of atomic charges:   -1.0000000

--------------------------------
MULLIKEN REDUCED ORBITAL CHARGES
--------------------------------
  0 F s       :     3.596626  s :     3.596626
      pz      :     1.718474  p :     4.964454
      px      :     1.527400
      py      :     1.718581
      dz2     :     0.002936  d :     0.034689
      dxz     :     0.011645
      dyz     :     0.000081
      dx2y2   :     0.008371
      dxy     :     0.011655
  1 C s       :     3.080147  s :     3.080147
      pz      :     1.010176  p :     2.886257
      px      :     0.865686
      py      :     1.010396
      dz2     :     0.011900  d :     0.166382
      dxz     :     0.063153
      dyz     :     0.003116
      dx2y2   :     0.024784
      dxy     :     0.063429
  2 Cls       :     5.993222  s :     5.993222
      pz      :     3.979056  p :    11.878071
      px      :     3.919867
      py      :     3.979147
      dz2     :     0.000023  d :     0.000497
      dxz     :     0.000200
      dyz     :     0.000012
      dx2y2   :     0.000063
      dxy     :     0.000199
  3 H s       :     1.111578  s :     1.111578
      pz      :     0.006016  p :     0.019790
      px      :     0.007665
      py      :     0.006109
  4 H s       :     1.114432  s :     1.114432
      pz      :     0.008361  p :     0.019565
      px      :     0.006456
      py      :     0.004748
  5 H s       :     1.114736  s :     1.114736
      pz      :     0.004745  p :     0.019556
      px      :     0.006542
      py      :     0.008268


                     *******************************
                     * LOEWDIN POPULATION ANALYSIS *
                     *******************************

----------------------
LOEWDIN ATOMIC CHARGES
----------------------
   0 F :    0.499442
   1 C :   -0.355881
   2 Cl:   -0.863893
   3 H :   -0.092539
   4 H :   -0.093506
   5 H :   -0.093623

-------------------------------
LOEWDIN REDUCED ORBITAL CHARGES
-------------------------------
  0 F s       :     3.374797  s :     3.374797
      pz      :     1.656151  p :     5.039385
      px      :     1.727160
      py      :     1.656074
      dz2     :     0.008712  d :     0.086376
      dxz     :     0.026101
      dyz     :     0.000053
      dx2y2   :     0.025407
      dxy     :     0.026103
  1 C s       :     2.778412  s :     2.778412
      pz      :     1.021655  p :     3.045710
      px      :     1.002354
      py      :     1.021701
      dz2     :     0.037395  d :     0.531759
      dxz     :     0.205599
      dyz     :     0.007315
      dx2y2   :     0.074627
      dxy     :     0.206824
  2 Cls       :     5.986300  s :     5.986300
      pz      :     3.984224  p :    11.876948
      px      :     3.908405
      py      :     3.984319
      dz2     :     0.000009  d :     0.000645
      dxz     :     0.000299
      dyz     :     0.000020
      dx2y2   :     0.000020
      dxy     :     0.000297
  3 H s       :     1.033561  s :     1.033561
      pz      :     0.019210  p :     0.058978
      px      :     0.020139
      py      :     0.019629
  4 H s       :     1.034946  s :     1.034946
      pz      :     0.030844  p :     0.058560
      px      :     0.016003
      py      :     0.011713
  5 H s       :     1.035106  s :     1.035106
      pz      :     0.011751  p :     0.058517
      px      :     0.016306
      py      :     0.030460


                      *****************************
                      * MAYER POPULATION ANALYSIS *
                      *****************************

  NA   - Mulliken gross atomic population
  ZA   - Total nuclear charge
  QA   - Mulliken gross atomic charge
  VA   - Mayer's total valence
  BVA  - Mayer's bonded valence
  FA   - Mayer's free valence

  ATOM       NA         ZA         QA         VA         BVA        FA
  0 F      8.5958     9.0000     0.4042     1.7539     1.7539    -0.0000
  1 C      6.1328     6.0000    -0.1328     4.3175     4.3175     0.0000
  2 Cl    17.8718    17.0000    -0.8718     0.2477     0.2477     0.0000
  3 H      1.1314     1.0000    -0.1314     0.9974     0.9974    -0.0000
  4 H      1.1340     1.0000    -0.1340     0.9959     0.9959    -0.0000
  5 H      1.1343     1.0000    -0.1343     0.9957     0.9957    -0.0000

  Mayer bond orders larger than 0.1
B(  0-F ,  1-C ) :   1.6284 B(  1-C ,  3-H ) :   0.8989 B(  1-C ,  4-H ) :   0.8979 
B(  1-C ,  5-H ) :   0.8979 

-------
TIMINGS
-------

Total SCF time: 0 days 0 hours 0 min 2 sec 

Total time                  ....       2.432 sec
Sum of individual times     ....       2.326 sec  ( 95.6%)

Fock matrix formation       ....       1.964 sec  ( 80.7%)
  Split-RI-J                ....       0.513 sec  ( 26.1% of F)
  Chain of spheres X        ....       1.183 sec  ( 60.3% of F)
  COS-X 1 center corr.      ....       0.000 sec  (  0.0% of F)
  XC integration            ....       0.252 sec  ( 12.8% of F)
    Basis function eval.    ....       0.103 sec  ( 40.7% of XC)
    Density eval.           ....       0.037 sec  ( 14.9% of XC)
    XC-Functional eval.     ....       0.049 sec  ( 19.4% of XC)
    XC-Potential eval.      ....       0.047 sec  ( 18.5% of XC)
Diagonalization             ....       0.000 sec  (  0.0%)
Density matrix formation    ....       0.000 sec  (  0.0%)
Population analysis         ....       0.001 sec  (  0.0%)
Initial guess               ....       0.001 sec  (  0.0%)
Orbital Transformation      ....       0.000 sec  (  0.0%)
Orbital Orthonormalization  ....       0.000 sec  (  0.0%)
DIIS solution               ....       0.000 sec  (  0.0%)
SOSCF solution              ....       0.001 sec  (  0.1%)
Grid generation             ....       0.358 sec  ( 14.7%)


-------------------------------------------------------------------------------
                          DFT DISPERSION CORRECTION                            
                                                                               
                              DFTD3 V3.1  Rev 1                                
                          USING Becke-Johnson damping                          
-------------------------------------------------------------------------------
The PBE0 functional is recognized
Active option DFTDOPT                   ...         4   

molecular C6(AA) [au] = 470.549243 


            DFT-D V3
 parameters
 s6 scaling factor         :     1.0000 
 a1 scaling factor         :     0.4145 
 s8 scaling factor         :     1.2177 
 a2 scaling factor         :     4.8593 
 ad hoc parameters k1-k3   :    16.0000     1.3333    -4.0000 

 Edisp/kcal,au: -1.395918375768  -0.002224537293 
 E6   /kcal   :  -0.880310185 
 E8   /kcal   :  -0.515608191 
 % E8         :  36.936843862 

-------------------------   ----------------
Dispersion correction           -0.002224537
-------------------------   ----------------


-------------------------   --------------------
FINAL SINGLE POINT ENERGY      -598.774777532152
-------------------------   --------------------

                                *** OPTIMIZATION RUN DONE ***

                            ***************************************
                            *     ORCA property calculations      *
                            ***************************************

                                    ---------------------
                                    Active property flags
                                    ---------------------
   (+) Dipole Moment


------------------------------------------------------------------------------
                       ORCA ELECTRIC PROPERTIES CALCULATION
------------------------------------------------------------------------------

Dipole Moment Calculation                       ... on
Quadrupole Moment Calculation                   ... off
Polarizability Calculation                      ... off
GBWName                                         ... test_ts_reopt_optts_forwards_displacement_orca.gbw
Electron density file                           ... test_ts_reopt_optts_forwards_displacement_orca.scfp.tmp
The origin for moment calculation is the CENTER OF MASS  = ( 0.942357,  0.073164 -0.083789)

-------------
DIPOLE MOMENT
-------------
                                X             Y             Z
Electronic contribution:     -0.92263      -0.05344       0.05733
Nuclear contribution   :     -2.50461      -0.11242       0.13661
                        -----------------------------------------
Total Dipole Moment    :     -3.42724      -0.16586       0.19394
                        -----------------------------------------
Magnitude (a.u.)       :      3.43673
Magnitude (Debye)      :      8.73547



--------------------
Rotational spectrum 
--------------------
 
Rotational constants in cm-1:     5.400875     0.072372     0.072370 
Rotational constants in MHz : 161914.147266  2169.643246  2169.591960 

 Dipole components along the rotational axes: 
x,y,z [a.u.] :     3.436727     0.000678    -0.004829 
x,y,z [Debye]:     8.735466     0.001724    -0.012274 

 

Timings for individual modules:

Sum of individual times         ...       83.881 sec (=   1.398 min)
GTO integral calculation        ...        4.897 sec (=   0.082 min)   5.8 %
SCF iterations                  ...       58.703 sec (=   0.978 min)  70.0 %
SCF Gradient evaluation         ...       19.513 sec (=   0.325 min)  23.3 %
Geometry relaxation             ...        0.769 sec (=   0.013 min)   0.9 %
                             ****ORCA TERMINATED NORMALLY****
TOTAL RUN TIME: 0 days 0 hours 1 minutes 28 seconds 419 msec
