 Entering Gaussian System, Link 0=/usr/local/gaussian/g09/g09
 Input=test_ts_reopt_optts_g09.com
 Output=test_ts_reopt_optts_g09.log
 Initial command:
 /usr/local/gaussian/g09/l1.exe "/home/aleph/fd/shug5449/autodE/tests/data/Gau-195858.inp" -scrdir="/home/aleph/fd/shug5449/autodE/tests/data/"
 Entering Link 1 = /usr/local/gaussian/g09/l1.exe PID=    195859.
  
 Copyright (c) 1988,1990,1992,1993,1995,1998,2003,2009,2013,
            Gaussian, Inc.  All Rights Reserved.
  
 This is part of the Gaussian(R) 09 program.  It is based on
 the Gaussian(R) 03 system (copyright 2003, Gaussian, Inc.),
 the Gaussian(R) 98 system (copyright 1998, Gaussian, Inc.),
 the Gaussian(R) 94 system (copyright 1995, Gaussian, Inc.),
 the Gaussian 92(TM) system (copyright 1992, Gaussian, Inc.),
 the Gaussian 90(TM) system (copyright 1990, Gaussian, Inc.),
 the Gaussian 88(TM) system (copyright 1988, Gaussian, Inc.),
 the Gaussian 86(TM) system (copyright 1986, Carnegie Mellon
 University), and the Gaussian 82(TM) system (copyright 1983,
 Carnegie Mellon University). Gaussian is a federally registered
 trademark of Gaussian, Inc.
  
 This software contains proprietary and confidential information,
 including trade secrets, belonging to Gaussian, Inc.
  
 This software is provided under written license and may be
 used, copied, transmitted, or stored only in accord with that
 written license.
  
 The following legend is applicable only to US Government
 contracts under FAR:
  
                    RESTRICTED RIGHTS LEGEND
  
 Use, reproduction and disclosure by the US Government is
 subject to restrictions as set forth in subparagraphs (a)
 and (c) of the Commercial Computer Software - Restricted
 Rights clause in FAR 52.227-19.
  
 Gaussian, Inc.
 340 Quinnipiac St., Bldg. 40, Wallingford CT 06492
  
  
 ---------------------------------------------------------------
 Warning -- This program may not be used in any manner that
 competes with the business of Gaussian, Inc. or will provide
 assistance to any competitor of Gaussian, Inc.  The licensee
 of this program is prohibited from giving any competitor of
 Gaussian, Inc. access to this program.  By using this program,
 the user acknowledges that Gaussian, Inc. is engaged in the
 business of creating and licensing software in the field of
 computational chemistry and represents and warrants to the
 licensee that it is not a competitor of Gaussian, Inc. and that
 it will not use this program in any manner prohibited above.
 ---------------------------------------------------------------
  

 Cite this work as:
 Gaussian 09, Revision D.01,
 M. J. Frisch, G. W. Trucks, H. B. Schlegel, G. E. Scuseria, 
 M. A. Robb, J. R. Cheeseman, G. Scalmani, V. Barone, B. Mennucci, 
 G. A. Petersson, H. Nakatsuji, M. Caricato, X. Li, H. P. Hratchian, 
 A. F. Izmaylov, J. Bloino, G. Zheng, J. L. Sonnenberg, M. Hada, 
 M. Ehara, K. Toyota, R. Fukuda, J. Hasegawa, M. Ishida, T. Nakajima, 
 Y. Honda, O. Kitao, H. Nakai, T. Vreven, J. A. Montgomery, Jr., 
 J. E. Peralta, F. Ogliaro, M. Bearpark, J. J. Heyd, E. Brothers, 
 K. N. Kudin, V. N. Staroverov, T. Keith, R. Kobayashi, J. Normand, 
 K. Raghavachari, A. Rendell, J. C. Burant, S. S. Iyengar, J. Tomasi, 
 M. Cossi, N. Rega, J. M. Millam, M. Klene, J. E. Knox, J. B. Cross, 
 V. Bakken, C. Adamo, J. Jaramillo, R. Gomperts, R. E. Stratmann, 
 O. Yazyev, A. J. Austin, R. Cammi, C. Pomelli, J. W. Ochterski, 
 R. L. Martin, K. Morokuma, V. G. Zakrzewski, G. A. Voth, 
 P. Salvador, J. J. Dannenberg, S. Dapprich, A. D. Daniels, 
 O. Farkas, J. B. Foresman, J. V. Ortiz, J. Cioslowski, 
 and D. J. Fox, Gaussian, Inc., Wallingford CT, 2013.
 
 ******************************************
 Gaussian 09:  EM64L-G09RevD.01 24-Apr-2013
                16-Dec-2019 
 ******************************************
 %mem=1000MB
 ----------------------------------------------------------------------
 # PBE1PBE/Def2SVP Opt=(TS, CalcFC, NoEigenTest, MaxCycles=100, MaxStep
 =10, NoTrustUpdate) Freq
 ----------------------------------------------------------------------
 1/5=1,6=100,8=10,9=1,10=4,11=1,14=-1,18=20,26=3,38=1/1,3;
 2/9=110,12=2,17=6,18=5,40=1/2;
 3/5=43,7=101,11=2,16=1,25=1,30=1,71=2,74=-13,140=1/1,2,3;
 4//1;
 5/5=2,38=5/2;
 8/6=4,10=90,11=11/1;
 11/6=1,8=1,9=11,15=111,16=1/1,2,10;
 10/6=1,13=1/2;
 6/7=2,8=2,9=2,10=2,28=1/1;
 7/10=1,18=20,25=1/1,2,3,16;
 1/5=1,6=100,8=10,9=1,10=4,11=1,14=-1,18=20,26=3/3(2);
 2/9=110/2;
 99//99;
 2/9=110/2;
 3/5=43,7=101,11=2,16=1,25=1,30=1,71=1,74=-13/1,2,3;
 4/5=5,16=3,69=1/1;
 5/5=2,38=5/2;
 7//1,2,3,16;
 1/5=1,6=100,8=10,9=1,11=1,14=-1,18=20,26=3/3(-5);
 2/9=110/2;
 6/7=2,8=2,9=2,10=2,19=2,28=1/1;
 99/9=1/99;
 -------------------
 test_ts_reopt_optts
 -------------------
 Symbolic Z-matrix:
 Charge =  0 Multiplicity = 1
 C                    -0.0221    0.0032    0.0165 
 H                    -0.669     0.8894   -0.1009 
 H                    -0.3778   -0.8578   -0.5883 
 H                     0.0964   -0.3151    1.0638 
 H                     0.9725    0.2803   -0.3911 
 

 GradGradGradGradGradGradGradGradGradGradGradGradGradGradGradGradGradGrad
 Berny optimization.
 Initialization pass.
                           ----------------------------
                           !    Initial Parameters    !
                           ! (Angstroms and Degrees)  !
 --------------------------                            --------------------------
 ! Name  Definition              Value          Derivative Info.                !
 --------------------------------------------------------------------------------
 ! R1    R(1,2)                  1.1035         calculate D2E/DX2 analytically  !
 ! R2    R(1,3)                  1.1107         calculate D2E/DX2 analytically  !
 ! R3    R(1,4)                  1.101          calculate D2E/DX2 analytically  !
 ! R4    R(1,5)                  1.11           calculate D2E/DX2 analytically  !
 ! A1    A(2,1,3)              112.1411         calculate D2E/DX2 analytically  !
 ! A2    A(2,1,4)              113.3585         calculate D2E/DX2 analytically  !
 ! A3    A(2,1,5)              106.6029         calculate D2E/DX2 analytically  !
 ! A4    A(3,1,4)              109.1674         calculate D2E/DX2 analytically  !
 ! A5    A(3,1,5)              106.291          calculate D2E/DX2 analytically  !
 ! A6    A(4,1,5)              108.9669         calculate D2E/DX2 analytically  !
 ! D1    D(2,1,4,3)            125.7854         calculate D2E/DX2 analytically  !
 ! D2    D(2,1,5,3)           -119.7936         calculate D2E/DX2 analytically  !
 ! D3    D(2,1,5,4)            122.681          calculate D2E/DX2 analytically  !
 ! D4    D(3,1,5,4)           -117.5254         calculate D2E/DX2 analytically  !
 --------------------------------------------------------------------------------
 Trust Radius=1.00D-01 FncErr=1.00D-07 GrdErr=1.00D-06
 Number of steps in this run=    100 maximum allowed number of steps=    100.
 Search for a saddle point of order  1.
 GradGradGradGradGradGradGradGradGradGradGradGradGradGradGradGradGradGrad

                          Input orientation:                          
 ---------------------------------------------------------------------
 Center     Atomic      Atomic             Coordinates (Angstroms)
 Number     Number       Type             X           Y           Z
 ---------------------------------------------------------------------
      1          6           0       -0.022100    0.003200    0.016500
      2          1           0       -0.669000    0.889400   -0.100900
      3          1           0       -0.377800   -0.857800   -0.588300
      4          1           0        0.096400   -0.315100    1.063800
      5          1           0        0.972500    0.280300   -0.391100
 ---------------------------------------------------------------------
                    Distance matrix (angstroms):
                    1          2          3          4          5
     1  C    0.000000
     2  H    1.103455   0.000000
     3  H    1.110687   1.837135   0.000000
     4  H    1.100997   1.842060   1.802449   0.000000
     5  H    1.110023   1.774751   1.776927   1.799663   0.000000
 Stoichiometry    CH4
 Framework group  C1[X(CH4)]
 Deg. of freedom     9
 Full point group                 C1      NOp   1
 Largest Abelian subgroup         C1      NOp   1
 Largest concise Abelian subgroup C1      NOp   1
                         Standard orientation:                         
 ---------------------------------------------------------------------
 Center     Atomic      Atomic             Coordinates (Angstroms)
 Number     Number       Type             X           Y           Z
 ---------------------------------------------------------------------
      1          6           0       -0.000391   -0.008353   -0.011082
      2          1           0       -0.966701   -0.229778   -0.495673
      3          1           0        0.506657    0.867297   -0.469085
      4          1           0        0.691582   -0.864704   -0.005621
      5          1           0       -0.229191    0.277301    1.036871
 ---------------------------------------------------------------------
 Rotational constants (GHZ):    158.0707298    153.6281374    149.5846313
 Standard basis: def2SVP (5D, 7F)
 There are    35 symmetry adapted cartesian basis functions of A   symmetry.
 There are    34 symmetry adapted basis functions of A   symmetry.
    34 basis functions,    53 primitive gaussians,    35 cartesian basis functions
     5 alpha electrons        5 beta electrons
       nuclear repulsion energy        13.2391201808 Hartrees.
 NAtoms=    5 NActive=    5 NUniq=    5 SFac= 1.00D+00 NAtFMM=   60 NAOKFM=F Big=F
 Integral buffers will be    131072 words long.
 Raffenetti 2 integral format.
 Two-electron integral symmetry is turned on.
 One-electron integrals computed using PRISM.
   1 Symmetry operations used in ECPInt.
 ECPInt:  NShTT=     171 NPrTT=     553 LenC2=     172 LenP2D=     539.
 LDataN:  DoStor=T MaxTD1= 4 Len=   56
 NBasis=    34 RedAO= T EigKep=  1.45D-02  NBF=    34
 NBsUse=    34 1.00D-06 EigRej= -1.00D+00 NBFU=    34
 ExpMin= 1.22D-01 ExpMax= 1.24D+03 ExpMxC= 1.86D+02 IAcc=1 IRadAn=         1 AccDes= 0.00D+00
 Harris functional with IExCor= 1009 and IRadAn=       1 diagonalized for initial guess.
 HarFok:  IExCor= 1009 AccDes= 0.00D+00 IRadAn=         1 IDoV= 1 UseB2=F ITyADJ=14
 ICtDFT=  3500011 ScaDFX=  1.000000  1.000000  1.000000  1.000000
 FoFCou: FMM=F IPFlag=           0 FMFlag=      100000 FMFlg1=           0
         NFxFlg=           0 DoJE=T BraDBF=F KetDBF=T FulRan=T
         wScrn=  0.000000 ICntrl=     500 IOpCl=  0 I1Cent=   200000004 NGrid=           0
         NMat0=    1 NMatS0=      1 NMatT0=    0 NMatD0=    1 NMtDS0=    0 NMtDT0=    0
 Petite list used in FoFCou.
 Keep R1 ints in memory in canonical form, NReq=1060351.
 Requested convergence on RMS density matrix=1.00D-08 within 128 cycles.
 Requested convergence on MAX density matrix=1.00D-06.
 Requested convergence on             energy=1.00D-06.
 No special actions if energy rises.
 Integral accuracy reduced to 1.0D-05 until final iterations.
 Initial convergence to 1.0D-05 achieved.  Increase integral accuracy.
 SCF Done:  E(RPBE1PBE) =  -40.4276170888     A.U. after    9 cycles
            NFock=  9  Conv=0.62D-08     -V/T= 2.0160
 DoSCS=F DFT=T ScalE2(SS,OS)=  1.000000  1.000000
 Range of M.O.s used for correlation:     1    34
 NBasis=    34 NAE=     5 NBE=     5 NFC=     0 NFV=     0
 NROrb=     34 NOA=     5 NOB=     5 NVA=    29 NVB=    29
   1 Symmetry operations used in ECPInt.
 ECPInt:  NShTT=     171 NPrTT=     553 LenC2=     172 LenP2D=     539.
 LDataN:  DoStor=T MaxTD1= 5 Len=  102
 Symmetrizing basis deriv contribution to polar:
 IMax=3 JMax=2 DiffMx= 0.00D+00
 G2DrvN: will do     6 centers at a time, making    1 passes.
 Calling FoFCou, ICntrl=  3107 FMM=F I1Cent=   0 AccDes= 0.00D+00.
 End of G2Drv F.D. properties file   721 does not exist.
 End of G2Drv F.D. properties file   722 does not exist.
 End of G2Drv F.D. properties file   788 does not exist.
          IDoAtm=11111
          Differentiating once with respect to nuclear coordinates.
 Keep R1 ints in memory in canonical form, NReq=1037587.
          There are    18 degrees of freedom in the 1st order CPHF.  IDoFFX=6 NUNeed=     0.
     12 vectors produced by pass  0 Test12= 8.06D-16 5.56D-09 XBig12= 4.53D-02 9.65D-02.
 AX will form    12 AO Fock derivatives at one time.
     12 vectors produced by pass  1 Test12= 8.06D-16 5.56D-09 XBig12= 1.32D-03 1.71D-02.
     12 vectors produced by pass  2 Test12= 8.06D-16 5.56D-09 XBig12= 1.20D-05 1.54D-03.
     12 vectors produced by pass  3 Test12= 8.06D-16 5.56D-09 XBig12= 2.18D-08 7.28D-05.
     12 vectors produced by pass  4 Test12= 8.06D-16 5.56D-09 XBig12= 3.39D-11 2.74D-06.
      4 vectors produced by pass  5 Test12= 8.06D-16 5.56D-09 XBig12= 3.20D-14 6.39D-08.
 InvSVY:  IOpt=1 It=  1 EMax= 6.66D-16
 Solved reduced A of dimension    64 with    12 vectors.
 End of Minotr F.D. properties file   721 does not exist.
 End of Minotr F.D. properties file   722 does not exist.
 End of Minotr F.D. properties file   788 does not exist.

 **********************************************************************

            Population analysis using the SCF density.

 **********************************************************************

 Orbital symmetries:
       Occupied  (A) (A) (A) (A) (A)
       Virtual   (A) (A) (A) (A) (A) (A) (A) (A) (A) (A) (A) (A)
                 (A) (A) (A) (A) (A) (A) (A) (A) (A) (A) (A) (A)
                 (A) (A) (A) (A) (A)
 The electronic state is 1-A.
 Alpha  occ. eigenvalues --  -10.22239  -0.70012  -0.40672  -0.39829  -0.38977
 Alpha virt. eigenvalues --    0.08450   0.15245   0.15422   0.15645   0.42800
 Alpha virt. eigenvalues --    0.43429   0.44405   0.66187   0.69212   0.69566
 Alpha virt. eigenvalues --    0.70016   0.79064   1.09583   1.10869   1.52148
 Alpha virt. eigenvalues --    1.53870   1.54492   1.75398   1.75803   1.77711
 Alpha virt. eigenvalues --    2.08276   2.13945   2.16488   2.50450   2.51924
 Alpha virt. eigenvalues --    2.58852   2.88952   2.91586   2.93161
          Condensed to atoms (all electrons):
               1          2          3          4          5
     1  C    4.613153   0.407046   0.404095   0.407274   0.400971
     2  H    0.407046   0.592910  -0.019246  -0.019121  -0.023174
     3  H    0.404095  -0.019246   0.601408  -0.021781  -0.022493
     4  H    0.407274  -0.019121  -0.021781   0.593638  -0.020701
     5  H    0.400971  -0.023174  -0.022493  -0.020701   0.613154
 Mulliken charges:
               1
     1  C   -0.232539
     2  H    0.061586
     3  H    0.058018
     4  H    0.060691
     5  H    0.052243
 Sum of Mulliken charges =   0.00000
 Mulliken charges with hydrogens summed into heavy atoms:
               1
     1  C    0.000000
 APT charges:
               1
     1  C   -0.956416
     2  H    0.242752
     3  H    0.239118
     4  H    0.241713
     5  H    0.232833
 Sum of APT charges =   0.00000
 APT charges with hydrogens summed into heavy atoms:
               1
     1  C    0.000000
 Electronic spatial extent (au):  <R**2>=             35.9893
 Charge=              0.0000 electrons
 Dipole moment (field-independent basis, Debye):
    X=              0.0003    Y=              0.0224    Z=              0.0393  Tot=              0.0452
 Quadrupole moment (field-independent basis, Debye-Ang):
   XX=             -8.1438   YY=             -8.2942   ZZ=             -8.4636
   XY=             -0.0119   XZ=              0.0196   YZ=             -0.0019
 Traceless Quadrupole moment (field-independent basis, Debye-Ang):
   XX=              0.1567   YY=              0.0063   ZZ=             -0.1630
   XY=             -0.0119   XZ=              0.0196   YZ=             -0.0019
 Octapole moment (field-independent basis, Debye-Ang**2):
  XXX=             -0.3397  YYY=              0.0302  ZZZ=              0.6009  XYY=              0.5808
  XXY=             -0.2781  XXZ=             -0.3462  XZZ=             -0.2406  YZZ=              0.2758
  YYZ=             -0.1696  XYZ=             -0.2530
 Hexadecapole moment (field-independent basis, Debye-Ang**3):
 XXXX=            -15.8368 YYYY=            -15.7175 ZZZZ=            -15.4922 XXXY=              0.0070
 XXXZ=              0.4653 YYYX=             -0.1446 YYYZ=             -0.3144 ZZZX=             -0.1808
 ZZZY=              0.2824 XXYY=             -5.0079 XXZZ=             -5.3019 YYZZ=             -5.3598
 XXYZ=              0.0179 YYXZ=             -0.1847 ZZXY=              0.0807
 N-N= 1.323912018078D+01 E-N=-1.191936960378D+02  KE= 3.979089025037D+01
  Exact polarizability:   0.000   0.000   0.000   0.000   0.000   0.000
 Approx polarizability:  15.660   0.065  15.247  -0.168   0.058  15.075
   1 Symmetry operations used in ECPInt.
 ECPInt:  NShTT=     171 NPrTT=     553 LenC2=     172 LenP2D=     539.
 LDataN:  DoStor=T MaxTD1= 6 Len=  172
 Calling FoFJK, ICntrl=    100147 FMM=F ISym2X=0 I1Cent= 0 IOpClX= 0 NMat=1 NMatS=1 NMatT=0.
 ***** Axes restored to original set *****
 -------------------------------------------------------------------
 Center     Atomic                   Forces (Hartrees/Bohr)
 Number     Number              X              Y              Z
 -------------------------------------------------------------------
      1        6           0.010952559   -0.003162928   -0.011441707
      2        1          -0.001801660   -0.006416997    0.003587522
      3        1          -0.002111867    0.007750526    0.004801793
      4        1          -0.002805719    0.003738362   -0.001452100
      5        1          -0.004233314   -0.001908963    0.004504492
 -------------------------------------------------------------------
 Cartesian Forces:  Max     0.011441707 RMS     0.005606953
 FormGI is forming the generalized inverse of G from B-inverse, IUseBI=4.

 GradGradGradGradGradGradGradGradGradGradGradGradGradGradGradGradGradGrad
 Berny optimization.
 Internal  Forces:  Max     0.007946542 RMS     0.003897481
 Search for a saddle point.
 Step number   1 out of a maximum of  100
 All quantities printed in internal units (Hartrees-Bohrs-Radians)
 Swapping is turned off.
 Second derivative matrix not updated -- analytic derivatives used.
 The second derivative matrix:
                          R1        R2        R3        R4        A1
           R1           0.34392
           R2          -0.00053   0.32927
           R3          -0.00079   0.00036   0.34877
           R4           0.00099   0.00091   0.00012   0.32983
           A1           0.00133   0.00117  -0.00137  -0.00215   0.01815
           A2           0.00190  -0.00078   0.00235  -0.00495  -0.00866
           A3           0.00636  -0.00408  -0.00453   0.00424  -0.01136
           A4          -0.00078   0.00256   0.00299  -0.00451  -0.00882
           A5          -0.00436   0.00626  -0.00488   0.00399  -0.01198
           A6          -0.00496  -0.00507   0.00499   0.00448   0.02296
           D1           0.00255   0.00298   0.00227  -0.01002   0.01059
           D2          -0.00255  -0.00249   0.00639  -0.00169  -0.00917
           D3           0.00325  -0.00630   0.00298  -0.00084  -0.00403
           D4           0.00580  -0.00380  -0.00341   0.00086   0.00514
                          A2        A3        A4        A5        A6
           A2           0.03294
           A3          -0.02082   0.07266
           A4          -0.00461   0.02263   0.03136
           A5           0.02369  -0.03392  -0.02067   0.07394
           A6          -0.02403  -0.03056  -0.02247  -0.02815   0.08498
           D1           0.00936  -0.01264   0.00952  -0.01443  -0.00514
           D2           0.00850  -0.00636   0.00931  -0.00665   0.00325
           D3           0.01335   0.00094  -0.00490  -0.00800   0.00159
           D4           0.00484   0.00730  -0.01421  -0.00135  -0.00166
                          D1        D2        D3        D4
           D1           0.02833
           D2           0.00150   0.01727
           D3           0.00073   0.00829   0.01754
           D4          -0.00077  -0.00898   0.00925   0.01824
 ITU=  0
     Eigenvalues ---    0.03621   0.04263   0.05854   0.12749   0.12803
     Eigenvalues ---    0.32937   0.33105   0.34436   0.34952
 Eigenvectors required to have negative eigenvalues:
                          D2        D1        A1        D3        A6
   1                   -0.52212   0.48844   0.47345  -0.38626  -0.24994
                          A2        D4        A3        R2        R3
   1                   -0.16622   0.13586  -0.07099  -0.02392   0.01899
 RFO step:  Lambda0=3.631493809D-02 Lambda=-1.73597253D-03.
 Linear search not attempted -- option 19 set.
 Maximum step size (   0.100) exceeded in Quadratic search.
    -- Step size scaled by   0.010
 Iteration  1 RMS(Cart)=  0.02605175 RMS(Int)=  0.00109679
 Iteration  2 RMS(Cart)=  0.00078335 RMS(Int)=  0.00069508
 Iteration  3 RMS(Cart)=  0.00000035 RMS(Int)=  0.00069508
 Variable       Old X    -DE/DX   Delta X   Delta X   Delta X     New X
                                 (Linear)    (Quad)   (Total)
    R1        2.08523  -0.00448   0.00000  -0.00190  -0.00190   2.08333
    R2        2.09890  -0.00795   0.00000  -0.00442  -0.00442   2.09447
    R3        2.08058  -0.00276   0.00000   0.00327   0.00327   2.08385
    R4        2.09764  -0.00592   0.00000   0.00280   0.00280   2.10044
    A1        1.95723  -0.00239   0.00000   0.08246   0.08268   2.03991
    A2        1.97848  -0.00367   0.00000  -0.02973  -0.03104   1.94744
    A3        1.86057   0.00458   0.00000  -0.01194  -0.01323   1.84734
    A4        1.90533   0.00046   0.00000  -0.00264  -0.00274   1.90259
    A5        1.85513   0.00262   0.00000   0.00352   0.00275   1.85788
    A6        1.90183  -0.00109   0.00000  -0.04365  -0.04482   1.85701
    D1        2.19537  -0.00550   0.00000   0.08452   0.08366   2.27903
    D2       -2.09079  -0.00090   0.00000  -0.09143  -0.09115  -2.18194
    D3        2.14119  -0.00229   0.00000  -0.06803  -0.06737   2.07381
    D4       -2.05121  -0.00140   0.00000   0.02340   0.02377  -2.02743
         Item               Value     Threshold  Converged?
 Maximum Force            0.007947     0.000450     NO 
 RMS     Force            0.003897     0.000300     NO 
 Maximum Displacement     0.045790     0.001800     NO 
 RMS     Displacement     0.026037     0.001200     NO 
 Predicted change in Energy= 8.802351D-04
 GradGradGradGradGradGradGradGradGradGradGradGradGradGradGradGradGradGrad

                          Input orientation:                          
 ---------------------------------------------------------------------
 Center     Atomic      Atomic             Coordinates (Angstroms)
 Number     Number       Type             X           Y           Z
 ---------------------------------------------------------------------
      1          6           0       -0.040491   -0.001352    0.000263
      2          1           0       -0.657855    0.908352   -0.081561
      3          1           0       -0.365288   -0.882031   -0.589098
      4          1           0        0.098451   -0.304028    1.051495
      5          1           0        0.965183    0.279059   -0.381099
 ---------------------------------------------------------------------
                    Distance matrix (angstroms):
                    1          2          3          4          5
     1  C    0.000000
     2  H    1.102449   0.000000
     3  H    1.108348   1.883789   0.000000
     4  H    1.102728   1.823645   1.800191   0.000000
     5  H    1.111507   1.766348   1.778073   1.773003   0.000000
 Stoichiometry    CH4
 Framework group  C1[X(CH4)]
 Deg. of freedom     9
 Full point group                 C1      NOp   1
 Largest Abelian subgroup         C1      NOp   1
 Largest concise Abelian subgroup C1      NOp   1
                         Standard orientation:                         
 ---------------------------------------------------------------------
 Center     Atomic      Atomic             Coordinates (Angstroms)
 Number     Number       Type             X           Y           Z
 ---------------------------------------------------------------------
      1          6           0       -0.001985    0.001576   -0.020098
      2          1           0       -0.970515    0.223204   -0.497826
      3          1           0        0.886351    0.530678   -0.419280
      4          1           0        0.203054   -1.081777   -0.002406
      5          1           0       -0.106980    0.318437    1.040101
 ---------------------------------------------------------------------
 Rotational constants (GHZ):    161.1114863    152.4366094    148.2131671
 Standard basis: def2SVP (5D, 7F)
 There are    35 symmetry adapted cartesian basis functions of A   symmetry.
 There are    34 symmetry adapted basis functions of A   symmetry.
    34 basis functions,    53 primitive gaussians,    35 cartesian basis functions
     5 alpha electrons        5 beta electrons
       nuclear repulsion energy        13.2412202801 Hartrees.
 NAtoms=    5 NActive=    5 NUniq=    5 SFac= 1.00D+00 NAtFMM=   60 NAOKFM=F Big=F
 Integral buffers will be    131072 words long.
 Raffenetti 2 integral format.
 Two-electron integral symmetry is turned on.
 One-electron integrals computed using PRISM.
   1 Symmetry operations used in ECPInt.
 ECPInt:  NShTT=     171 NPrTT=     553 LenC2=     172 LenP2D=     539.
 LDataN:  DoStor=T MaxTD1= 4 Len=   56
 NBasis=    34 RedAO= T EigKep=  1.45D-02  NBF=    34
 NBsUse=    34 1.00D-06 EigRej= -1.00D+00 NBFU=    34
 Initial guess from the checkpoint file:  "/home/aleph/fd/shug5449/autodE/tests/data/Gau-195859.chk"
 B after Tr=     0.000000    0.000000    0.000000
         Rot=    0.971191   -0.010772    0.011874    0.237761 Ang= -27.57 deg.
 ExpMin= 1.22D-01 ExpMax= 1.24D+03 ExpMxC= 1.86D+02 IAcc=1 IRadAn=         1 AccDes= 0.00D+00
 Harris functional with IExCor= 1009 and IRadAn=       1 diagonalized for initial guess.
 HarFok:  IExCor= 1009 AccDes= 0.00D+00 IRadAn=         1 IDoV= 1 UseB2=F ITyADJ=14
 ICtDFT=  3500011 ScaDFX=  1.000000  1.000000  1.000000  1.000000
 FoFCou: FMM=F IPFlag=           0 FMFlag=      100000 FMFlg1=           0
         NFxFlg=           0 DoJE=T BraDBF=F KetDBF=T FulRan=T
         wScrn=  0.000000 ICntrl=     500 IOpCl=  0 I1Cent=   200000004 NGrid=           0
         NMat0=    1 NMatS0=      1 NMatT0=    0 NMatD0=    1 NMtDS0=    0 NMtDT0=    0
 Petite list used in FoFCou.
 Keep R1 ints in memory in canonical form, NReq=1060351.
 Requested convergence on RMS density matrix=1.00D-08 within 128 cycles.
 Requested convergence on MAX density matrix=1.00D-06.
 Requested convergence on             energy=1.00D-06.
 No special actions if energy rises.
 Integral accuracy reduced to 1.0D-05 until final iterations.
 Initial convergence to 1.0D-05 achieved.  Increase integral accuracy.
 SCF Done:  E(RPBE1PBE) =  -40.4267337389     A.U. after    8 cycles
            NFock=  8  Conv=0.12D-08     -V/T= 2.0160
   1 Symmetry operations used in ECPInt.
 ECPInt:  NShTT=     171 NPrTT=     553 LenC2=     172 LenP2D=     539.
 LDataN:  DoStor=T MaxTD1= 5 Len=  102
 Calling FoFJK, ICntrl=      2127 FMM=F ISym2X=0 I1Cent= 0 IOpClX= 0 NMat=1 NMatS=1 NMatT=0.
 ***** Axes restored to original set *****
 -------------------------------------------------------------------
 Center     Atomic                   Forces (Hartrees/Bohr)
 Number     Number              X              Y              Z
 -------------------------------------------------------------------
      1        6           0.020282733   -0.001002803   -0.002769834
      2        1          -0.005185025   -0.008786294   -0.000585748
      3        1          -0.005842774    0.009846814    0.002884650
      4        1          -0.004170589    0.002197925   -0.001761476
      5        1          -0.005084345   -0.002255642    0.002232409
 -------------------------------------------------------------------
 Cartesian Forces:  Max     0.020282733 RMS     0.006952994

 GradGradGradGradGradGradGradGradGradGradGradGradGradGradGradGradGradGrad
 Berny optimization.
 FormGI is forming the generalized inverse of G from B-inverse, IUseBI=4.
 Internal  Forces:  Max     0.008665850 RMS     0.004406743
 Search for a saddle point.
 Step number   2 out of a maximum of  100
 All quantities printed in internal units (Hartrees-Bohrs-Radians)
 Swapping is turned off.
 Update second derivatives using D2CorX and points    1    2
 The second derivative matrix:
                          R1        R2        R3        R4        A1
           R1           0.34394
           R2          -0.00051   0.32930
           R3          -0.00079   0.00037   0.34876
           R4           0.00099   0.00091   0.00012   0.32983
           A1           0.00115   0.00097  -0.00151  -0.00227   0.01828
           A2           0.00200  -0.00066   0.00239  -0.00491  -0.00915
           A3           0.00641  -0.00403  -0.00451   0.00425  -0.01156
           A4          -0.00077   0.00257   0.00300  -0.00451  -0.00885
           A5          -0.00439   0.00622  -0.00489   0.00399  -0.01161
           A6          -0.00482  -0.00490   0.00506   0.00454   0.02215
           D1           0.00235   0.00275   0.00213  -0.01014   0.01094
           D2          -0.00238  -0.00233   0.00655  -0.00156  -0.00872
           D3           0.00339  -0.00616   0.00309  -0.00074  -0.00388
           D4           0.00576  -0.00383  -0.00346   0.00082   0.00484
                          A2        A3        A4        A5        A6
           A2           0.03334
           A3          -0.02066   0.07273
           A4          -0.00458   0.02264   0.03136
           A5           0.02350  -0.03400  -0.02068   0.07399
           A6          -0.02342  -0.03031  -0.02243  -0.02843   0.08593
           D1           0.00876  -0.01289   0.00948  -0.01403  -0.00611
           D2           0.00877  -0.00626   0.00932  -0.00700   0.00373
           D3           0.01363   0.00105  -0.00488  -0.00828   0.00208
           D4           0.00486   0.00731  -0.01420  -0.00128  -0.00165
                          D1        D2        D3        D4
           D1           0.02892
           D2           0.00174   0.01619
           D3           0.00071   0.00767   0.01723
           D4          -0.00103  -0.00852   0.00956   0.01808
 ITU=  0  0
     Eigenvalues ---    0.03643   0.04272   0.05849   0.12747   0.12789
     Eigenvalues ---    0.32937   0.33106   0.34437   0.34952
 Eigenvectors required to have negative eigenvalues:
                          D2        A1        D1        D3        A6
   1                   -0.53831   0.48809   0.47097  -0.32701  -0.25575
                          D4        A2        A4        A3        R3
   1                    0.21130  -0.15223  -0.07402  -0.05623   0.02102
 RFO step:  Lambda0=3.834146185D-02 Lambda=-1.60932740D-03.
 Linear search not attempted -- option 19 set.
 Maximum step size (   0.100) exceeded in Quadratic search.
    -- Step size scaled by   0.038
 Iteration  1 RMS(Cart)=  0.02543789 RMS(Int)=  0.00101886
 Iteration  2 RMS(Cart)=  0.00075914 RMS(Int)=  0.00062018
 Iteration  3 RMS(Cart)=  0.00000022 RMS(Int)=  0.00062018
 Variable       Old X    -DE/DX   Delta X   Delta X   Delta X     New X
                                 (Linear)    (Quad)   (Total)
    R1        2.08333  -0.00430   0.00000  -0.00251  -0.00251   2.08081
    R2        2.09447  -0.00765   0.00000  -0.00419  -0.00419   2.09029
    R3        2.08385  -0.00281   0.00000   0.00342   0.00342   2.08728
    R4        2.10044  -0.00594   0.00000   0.00206   0.00206   2.10250
    A1        2.03991  -0.00541   0.00000   0.08261   0.08277   2.12269
    A2        1.94744  -0.00240   0.00000  -0.02853  -0.02941   1.91803
    A3        1.84734   0.00506   0.00000  -0.00763  -0.00880   1.83855
    A4        1.90259   0.00056   0.00000  -0.01285  -0.01316   1.88943
    A5        1.85788   0.00236   0.00000  -0.00010  -0.00106   1.85682
    A6        1.85701   0.00079   0.00000  -0.04365  -0.04470   1.81231
    D1        2.27903  -0.00867   0.00000   0.07726   0.07632   2.35535
    D2       -2.18194   0.00224   0.00000  -0.09320  -0.09299  -2.27493
    D3        2.07381   0.00011   0.00000  -0.05778  -0.05742   2.01639
    D4       -2.02743  -0.00213   0.00000   0.03543   0.03557  -1.99187
         Item               Value     Threshold  Converged?
 Maximum Force            0.008666     0.000450     NO 
 RMS     Force            0.004407     0.000300     NO 
 Maximum Displacement     0.042201     0.001800     NO 
 RMS     Displacement     0.025391     0.001200     NO 
 Predicted change in Energy= 1.927392D-03
 GradGradGradGradGradGradGradGradGradGradGradGradGradGradGradGradGradGrad

                          Input orientation:                          
 ---------------------------------------------------------------------
 Center     Atomic      Atomic             Coordinates (Angstroms)
 Number     Number       Type             X           Y           Z
 ---------------------------------------------------------------------
      1          6           0       -0.058630   -0.002688   -0.016504
      2          1           0       -0.648084    0.926223   -0.062658
      3          1           0       -0.351600   -0.904363   -0.586311
      4          1           0        0.099937   -0.295296    1.036703
      5          1           0        0.958376    0.276124   -0.371231
 ---------------------------------------------------------------------
                    Distance matrix (angstroms):
                    1          2          3          4          5
     1  C    0.000000
     2  H    1.101119   0.000000
     3  H    1.106132   1.926956   0.000000
     4  H    1.104539   1.805613   1.791374   0.000000
     5  H    1.112596   1.760273   1.776471   1.745198   0.000000
 Stoichiometry    CH4
 Framework group  C1[X(CH4)]
 Deg. of freedom     9
 Full point group                 C1      NOp   1
 Largest Abelian subgroup         C1      NOp   1
 Largest concise Abelian subgroup C1      NOp   1
                         Standard orientation:                         
 ---------------------------------------------------------------------
 Center     Atomic      Atomic             Coordinates (Angstroms)
 Number     Number       Type             X           Y           Z
 ---------------------------------------------------------------------
      1          6           0       -0.000548    0.011043   -0.028408
      2          1           0       -0.964161    0.303245   -0.473975
      3          1           0        0.957569    0.422614   -0.397393
      4          1           0        0.083010   -1.090022   -0.002299
      5          1           0       -0.073133    0.297908    1.044116
 ---------------------------------------------------------------------
 Rotational constants (GHZ):    165.5383351    150.1648478    147.1643826
 Standard basis: def2SVP (5D, 7F)
 There are    35 symmetry adapted cartesian basis functions of A   symmetry.
 There are    34 symmetry adapted basis functions of A   symmetry.
    34 basis functions,    53 primitive gaussians,    35 cartesian basis functions
     5 alpha electrons        5 beta electrons
       nuclear repulsion energy        13.2470272281 Hartrees.
 NAtoms=    5 NActive=    5 NUniq=    5 SFac= 1.00D+00 NAtFMM=   60 NAOKFM=F Big=F
 Integral buffers will be    131072 words long.
 Raffenetti 2 integral format.
 Two-electron integral symmetry is turned on.
 One-electron integrals computed using PRISM.
   1 Symmetry operations used in ECPInt.
 ECPInt:  NShTT=     171 NPrTT=     553 LenC2=     172 LenP2D=     539.
 LDataN:  DoStor=T MaxTD1= 4 Len=   56
 NBasis=    34 RedAO= T EigKep=  1.44D-02  NBF=    34
 NBsUse=    34 1.00D-06 EigRej= -1.00D+00 NBFU=    34
 Initial guess from the checkpoint file:  "/home/aleph/fd/shug5449/autodE/tests/data/Gau-195859.chk"
 B after Tr=     0.000000    0.000000    0.000000
         Rot=    0.998627   -0.005719   -0.000956    0.052067 Ang=  -6.01 deg.
 ExpMin= 1.22D-01 ExpMax= 1.24D+03 ExpMxC= 1.86D+02 IAcc=1 IRadAn=         1 AccDes= 0.00D+00
 Harris functional with IExCor= 1009 and IRadAn=       1 diagonalized for initial guess.
 HarFok:  IExCor= 1009 AccDes= 0.00D+00 IRadAn=         1 IDoV= 1 UseB2=F ITyADJ=14
 ICtDFT=  3500011 ScaDFX=  1.000000  1.000000  1.000000  1.000000
 FoFCou: FMM=F IPFlag=           0 FMFlag=      100000 FMFlg1=           0
         NFxFlg=           0 DoJE=T BraDBF=F KetDBF=T FulRan=T
         wScrn=  0.000000 ICntrl=     500 IOpCl=  0 I1Cent=   200000004 NGrid=           0
         NMat0=    1 NMatS0=      1 NMatT0=    0 NMatD0=    1 NMtDS0=    0 NMtDT0=    0
 Petite list used in FoFCou.
 Keep R1 ints in memory in canonical form, NReq=1060351.
 Requested convergence on RMS density matrix=1.00D-08 within 128 cycles.
 Requested convergence on MAX density matrix=1.00D-06.
 Requested convergence on             energy=1.00D-06.
 No special actions if energy rises.
 Integral accuracy reduced to 1.0D-05 until final iterations.
 Initial convergence to 1.0D-05 achieved.  Increase integral accuracy.
 SCF Done:  E(RPBE1PBE) =  -40.4248023705     A.U. after    9 cycles
            NFock=  9  Conv=0.68D-09     -V/T= 2.0159
   1 Symmetry operations used in ECPInt.
 ECPInt:  NShTT=     171 NPrTT=     553 LenC2=     172 LenP2D=     539.
 LDataN:  DoStor=T MaxTD1= 5 Len=  102
 Calling FoFJK, ICntrl=      2127 FMM=F ISym2X=0 I1Cent= 0 IOpClX= 0 NMat=1 NMatS=1 NMatT=0.
 ***** Axes restored to original set *****
 -------------------------------------------------------------------
 Center     Atomic                   Forces (Hartrees/Bohr)
 Number     Number              X              Y              Z
 -------------------------------------------------------------------
      1        6           0.029470871   -0.000332219    0.006137138
      2        1          -0.008552079   -0.010324070   -0.004620493
      3        1          -0.009650912    0.011593856    0.000380524
      4        1          -0.005494834    0.001140013   -0.001710567
      5        1          -0.005773045   -0.002077580   -0.000186601
 -------------------------------------------------------------------
 Cartesian Forces:  Max     0.029470871 RMS     0.009685663

 GradGradGradGradGradGradGradGradGradGradGradGradGradGradGradGradGradGrad
 Berny optimization.
 FormGI is forming the generalized inverse of G from B-inverse, IUseBI=4.
 Internal  Forces:  Max     0.011503011 RMS     0.005345234
 Search for a saddle point.
 Step number   3 out of a maximum of  100
 All quantities printed in internal units (Hartrees-Bohrs-Radians)
 Swapping is turned off.
 Update second derivatives using D2CorX and points    1    2    3
 The second derivative matrix:
                          R1        R2        R3        R4        A1
           R1           0.34397
           R2          -0.00047   0.32936
           R3          -0.00078   0.00038   0.34874
           R4           0.00100   0.00093   0.00010   0.32982
           A1           0.00081   0.00059  -0.00185  -0.00251   0.01806
           A2           0.00212  -0.00052   0.00252  -0.00482  -0.00911
           A3           0.00648  -0.00393  -0.00448   0.00428  -0.01214
           A4          -0.00076   0.00258   0.00304  -0.00447  -0.00840
           A5          -0.00438   0.00623  -0.00489   0.00399  -0.01173
           A6          -0.00453  -0.00455   0.00523   0.00466   0.02071
           D1           0.00203   0.00239   0.00182  -0.01037   0.01074
           D2          -0.00201  -0.00192   0.00692  -0.00129  -0.00830
           D3           0.00364  -0.00588   0.00333  -0.00057  -0.00376
           D4           0.00564  -0.00396  -0.00359   0.00072   0.00454
                          A2        A3        A4        A5        A6
           A2           0.03333
           A3          -0.02044   0.07291
           A4          -0.00474   0.02264   0.03127
           A5           0.02355  -0.03398  -0.02067   0.07399
           A6          -0.02287  -0.02971  -0.02254  -0.02835   0.08780
           D1           0.00880  -0.01344   0.00991  -0.01414  -0.00748
           D2           0.00866  -0.00564   0.00880  -0.00687   0.00522
           D3           0.01361   0.00148  -0.00520  -0.00819   0.00315
           D4           0.00495   0.00712  -0.01401  -0.00132  -0.00208
                          D1        D2        D3        D4
           D1           0.02873
           D2           0.00213   0.01553
           D3           0.00082   0.00741   0.01717
           D4          -0.00131  -0.00812   0.00976   0.01788
 ITU=  0  0  0
     Eigenvalues ---    0.03651   0.04281   0.05839   0.12714   0.12767
     Eigenvalues ---    0.32937   0.33108   0.34439   0.34953
 Eigenvectors required to have negative eigenvalues:
                          D2        A1        D1        D4        D3
   1                   -0.55957   0.49609   0.42324   0.29265  -0.26692
                          A6        A4        A2        A5        A3
   1                   -0.24113  -0.15537  -0.13849  -0.03684  -0.02753
 RFO step:  Lambda0=4.163000226D-02 Lambda=-1.61645310D-03.
 Linear search not attempted -- option 19 set.
 Maximum step size (   0.100) exceeded in Quadratic search.
    -- Step size scaled by   0.059
 Iteration  1 RMS(Cart)=  0.02503114 RMS(Int)=  0.00097628
 Iteration  2 RMS(Cart)=  0.00073919 RMS(Int)=  0.00058255
 Iteration  3 RMS(Cart)=  0.00000016 RMS(Int)=  0.00058255
 Variable       Old X    -DE/DX   Delta X   Delta X   Delta X     New X
                                 (Linear)    (Quad)   (Total)
    R1        2.08081  -0.00394   0.00000  -0.00285  -0.00285   2.07797
    R2        2.09029  -0.00709   0.00000  -0.00325  -0.00325   2.08704
    R3        2.08728  -0.00272   0.00000   0.00396   0.00396   2.09123
    R4        2.10250  -0.00574   0.00000   0.00131   0.00131   2.10381
    A1        2.12269  -0.00843   0.00000   0.08197   0.08198   2.20467
    A2        1.91803  -0.00116   0.00000  -0.02627  -0.02666   1.89138
    A3        1.83855   0.00538   0.00000  -0.00093  -0.00204   1.83650
    A4        1.88943   0.00097   0.00000  -0.02768  -0.02816   1.86128
    A5        1.85682   0.00230   0.00000  -0.00374  -0.00488   1.85195
    A6        1.81231   0.00299   0.00000  -0.03991  -0.04081   1.77150
    D1        2.35535  -0.01150   0.00000   0.06543   0.06443   2.41978
    D2       -2.27493   0.00544   0.00000  -0.09613  -0.09606  -2.37099
    D3        2.01639   0.00214   0.00000  -0.04644  -0.04645   1.96994
    D4       -1.99187  -0.00330   0.00000   0.04969   0.04961  -1.94226
         Item               Value     Threshold  Converged?
 Maximum Force            0.011503     0.000450     NO 
 RMS     Force            0.005345     0.000300     NO 
 Maximum Displacement     0.038552     0.001800     NO 
 RMS     Displacement     0.024951     0.001200     NO 
 Predicted change in Energy= 2.854235D-03
 GradGradGradGradGradGradGradGradGradGradGradGradGradGradGradGradGradGrad

                          Input orientation:                          
 ---------------------------------------------------------------------
 Center     Atomic      Atomic             Coordinates (Angstroms)
 Number     Number       Type             X           Y           Z
 ---------------------------------------------------------------------
      1          6           0       -0.075340    0.000098   -0.034092
      2          1           0       -0.640419    0.943355   -0.044121
      3          1           0       -0.336639   -0.924764   -0.578228
      4          1           0        0.099401   -0.290542    1.019298
      5          1           0        0.952997    0.271853   -0.362857
 ---------------------------------------------------------------------
                    Distance matrix (angstroms):
                    1          2          3          4          5
     1  C    0.000000
     2  H    1.099613   0.000000
     3  H    1.104414   1.966576   0.000000
     4  H    1.106633   1.789049   1.773263   0.000000
     5  H    1.113290   1.758260   1.772410   1.719089   0.000000
 Stoichiometry    CH4
 Framework group  C1[X(CH4)]
 Deg. of freedom     9
 Full point group                 C1      NOp   1
 Largest Abelian subgroup         C1      NOp   1
 Largest concise Abelian subgroup C1      NOp   1
                         Standard orientation:                         
 ---------------------------------------------------------------------
 Center     Atomic      Atomic             Coordinates (Angstroms)
 Number     Number       Type             X           Y           Z
 ---------------------------------------------------------------------
      1          6           0       -0.001203    0.018890   -0.036760
      2          1           0       -0.984263    0.271511   -0.459754
      3          1           0        0.979756    0.359910   -0.412468
      4          1           0        0.062908   -1.081307    0.063709
      5          1           0       -0.051186    0.336549    1.029076
 ---------------------------------------------------------------------
 Rotational constants (GHZ):    170.1638211    147.8013514    146.4228523
 Standard basis: def2SVP (5D, 7F)
 There are    35 symmetry adapted cartesian basis functions of A   symmetry.
 There are    34 symmetry adapted basis functions of A   symmetry.
    34 basis functions,    53 primitive gaussians,    35 cartesian basis functions
     5 alpha electrons        5 beta electrons
       nuclear repulsion energy        13.2540534096 Hartrees.
 NAtoms=    5 NActive=    5 NUniq=    5 SFac= 1.00D+00 NAtFMM=   60 NAOKFM=F Big=F
 Integral buffers will be    131072 words long.
 Raffenetti 2 integral format.
 Two-electron integral symmetry is turned on.
 One-electron integrals computed using PRISM.
   1 Symmetry operations used in ECPInt.
 ECPInt:  NShTT=     171 NPrTT=     553 LenC2=     172 LenP2D=     539.
 LDataN:  DoStor=T MaxTD1= 4 Len=   56
 NBasis=    34 RedAO= T EigKep=  1.43D-02  NBF=    34
 NBsUse=    34 1.00D-06 EigRej= -1.00D+00 NBFU=    34
 Initial guess from the checkpoint file:  "/home/aleph/fd/shug5449/autodE/tests/data/Gau-195859.chk"
 B after Tr=     0.000000    0.000000    0.000000
         Rot=    0.999583    0.026505   -0.006739    0.009272 Ang=   3.31 deg.
 ExpMin= 1.22D-01 ExpMax= 1.24D+03 ExpMxC= 1.86D+02 IAcc=1 IRadAn=         1 AccDes= 0.00D+00
 Harris functional with IExCor= 1009 and IRadAn=       1 diagonalized for initial guess.
 HarFok:  IExCor= 1009 AccDes= 0.00D+00 IRadAn=         1 IDoV= 1 UseB2=F ITyADJ=14
 ICtDFT=  3500011 ScaDFX=  1.000000  1.000000  1.000000  1.000000
 FoFCou: FMM=F IPFlag=           0 FMFlag=      100000 FMFlg1=           0
         NFxFlg=           0 DoJE=T BraDBF=F KetDBF=T FulRan=T
         wScrn=  0.000000 ICntrl=     500 IOpCl=  0 I1Cent=   200000004 NGrid=           0
         NMat0=    1 NMatS0=      1 NMatT0=    0 NMatD0=    1 NMtDS0=    0 NMtDT0=    0
 Petite list used in FoFCou.
 Keep R1 ints in memory in canonical form, NReq=1060351.
 Requested convergence on RMS density matrix=1.00D-08 within 128 cycles.
 Requested convergence on MAX density matrix=1.00D-06.
 Requested convergence on             energy=1.00D-06.
 No special actions if energy rises.
 Integral accuracy reduced to 1.0D-05 until final iterations.
 Initial convergence to 1.0D-05 achieved.  Increase integral accuracy.
 SCF Done:  E(RPBE1PBE) =  -40.4219502864     A.U. after    9 cycles
            NFock=  9  Conv=0.88D-09     -V/T= 2.0158
   1 Symmetry operations used in ECPInt.
 ECPInt:  NShTT=     171 NPrTT=     553 LenC2=     172 LenP2D=     539.
 LDataN:  DoStor=T MaxTD1= 5 Len=  102
 Calling FoFJK, ICntrl=      2127 FMM=F ISym2X=0 I1Cent= 0 IOpClX= 0 NMat=1 NMatS=1 NMatT=0.
 ***** Axes restored to original set *****
 -------------------------------------------------------------------
 Center     Atomic                   Forces (Hartrees/Bohr)
 Number     Number              X              Y              Z
 -------------------------------------------------------------------
      1        6           0.037937009   -0.001714112    0.015099784
      2        1          -0.011630358   -0.011141600   -0.008409566
      3        1          -0.013459565    0.013214180   -0.002831634
      4        1          -0.006490503    0.000986662   -0.001366399
      5        1          -0.006356582   -0.001345129   -0.002492185
 -------------------------------------------------------------------
 Cartesian Forces:  Max     0.037937009 RMS     0.012799651

 GradGradGradGradGradGradGradGradGradGradGradGradGradGradGradGradGradGrad
 Berny optimization.
 FormGI is forming the generalized inverse of G from B-inverse, IUseBI=4.
 Internal  Forces:  Max     0.013767211 RMS     0.006512526
 Search for a saddle point.
 Step number   4 out of a maximum of  100
 All quantities printed in internal units (Hartrees-Bohrs-Radians)
 Swapping is turned off.
 Update second derivatives using D2CorX and points    1    2    3    4
 The second derivative matrix:
                          R1        R2        R3        R4        A1
           R1           0.34399
           R2          -0.00044   0.32938
           R3          -0.00078   0.00039   0.34870
           R4           0.00099   0.00092   0.00009   0.32981
           A1           0.00047   0.00028  -0.00229  -0.00266   0.01801
           A2           0.00221  -0.00045   0.00271  -0.00477  -0.00848
           A3           0.00651  -0.00390  -0.00447   0.00428  -0.01248
           A4          -0.00066   0.00267   0.00318  -0.00442  -0.00818
           A5          -0.00434   0.00629  -0.00492   0.00399  -0.01252
           A6          -0.00432  -0.00433   0.00539   0.00471   0.01933
           D1           0.00175   0.00214   0.00145  -0.01049   0.01066
           D2          -0.00163  -0.00156   0.00746  -0.00112  -0.00799
           D3           0.00383  -0.00570   0.00361  -0.00048  -0.00362
           D4           0.00546  -0.00414  -0.00384   0.00063   0.00437
                          A2        A3        A4        A5        A6
           A2           0.03285
           A3          -0.02040   0.07292
           A4          -0.00496   0.02275   0.03112
           A5           0.02386  -0.03389  -0.02048   0.07398
           A6          -0.02274  -0.02949  -0.02222  -0.02787   0.08919
           D1           0.00934  -0.01370   0.01010  -0.01480  -0.00858
           D2           0.00784  -0.00527   0.00847  -0.00596   0.00669
           D3           0.01317   0.00166  -0.00536  -0.00769   0.00390
           D4           0.00533   0.00693  -0.01383  -0.00173  -0.00279
                          D1        D2        D3        D4
           D1           0.02863
           D2           0.00243   0.01488
           D3           0.00097   0.00709   0.01700
           D4          -0.00146  -0.00779   0.00992   0.01771
 ITU=  0  0  0  0
     Eigenvalues ---    0.03626   0.04258   0.05815   0.12628   0.12733
     Eigenvalues ---    0.32936   0.33109   0.34440   0.34952
 Eigenvectors required to have negative eigenvalues:
                          D2        A1        D1        D3        D4
   1                   -0.58445   0.49118   0.35184  -0.32644   0.25801
                          A6        A2        A4        A3        R3
   1                   -0.22054  -0.21134  -0.15621  -0.03623   0.02950
 RFO step:  Lambda0=4.494237591D-02 Lambda=-2.18876832D-03.
 Linear search not attempted -- option 19 set.
 Maximum step size (   0.100) exceeded in Quadratic search.
    -- Step size scaled by   0.072
 Iteration  1 RMS(Cart)=  0.02486142 RMS(Int)=  0.00096957
 Iteration  2 RMS(Cart)=  0.00073426 RMS(Int)=  0.00058229
 Iteration  3 RMS(Cart)=  0.00000018 RMS(Int)=  0.00058229
 Variable       Old X    -DE/DX   Delta X   Delta X   Delta X     New X
                                 (Linear)    (Quad)   (Total)
    R1        2.07797  -0.00350   0.00000  -0.00191  -0.00191   2.07606
    R2        2.08704  -0.00649   0.00000  -0.00339  -0.00339   2.08365
    R3        2.09123  -0.00258   0.00000   0.00471   0.00471   2.09595
    R4        2.10381  -0.00546   0.00000   0.00034   0.00034   2.10415
    A1        2.20467  -0.01148   0.00000   0.07884   0.07847   2.28314
    A2        1.89138  -0.00009   0.00000  -0.04022  -0.04062   1.85076
    A3        1.83650   0.00541   0.00000  -0.00165  -0.00292   1.83359
    A4        1.86128   0.00202   0.00000  -0.02702  -0.02716   1.83412
    A5        1.85195   0.00268   0.00000   0.00337   0.00218   1.85412
    A6        1.77150   0.00508   0.00000  -0.03479  -0.03546   1.73604
    D1        2.41978  -0.01377   0.00000   0.04962   0.04869   2.46847
    D2       -2.37099   0.00873   0.00000  -0.09956  -0.09973  -2.47072
    D3        1.96994   0.00366   0.00000  -0.05762  -0.05759   1.91235
    D4       -1.94226  -0.00507   0.00000   0.04193   0.04214  -1.90011
         Item               Value     Threshold  Converged?
 Maximum Force            0.013767     0.000450     NO 
 RMS     Force            0.006513     0.000300     NO 
 Maximum Displacement     0.041543     0.001800     NO 
 RMS     Displacement     0.024774     0.001200     NO 
 Predicted change in Energy= 3.589826D-03
 GradGradGradGradGradGradGradGradGradGradGradGradGradGradGradGradGradGrad

                          Input orientation:                          
 ---------------------------------------------------------------------
 Center     Atomic      Atomic             Coordinates (Angstroms)
 Number     Number       Type             X           Y           Z
 ---------------------------------------------------------------------
      1          6           0       -0.088613    0.001575   -0.054600
      2          1           0       -0.631705    0.956001   -0.022138
      3          1           0       -0.324243   -0.944545   -0.569487
      4          1           0        0.095137   -0.282560    1.001651
      5          1           0        0.949424    0.269528   -0.355426
 ---------------------------------------------------------------------
                    Distance matrix (angstroms):
                    1          2          3          4          5
     1  C    0.000000
     2  H    1.098605   0.000000
     3  H    1.102621   2.001550   0.000000
     4  H    1.109127   1.763654   1.755727   0.000000
     5  H    1.113471   1.755647   1.772576   1.695955   0.000000
 Stoichiometry    CH4
 Framework group  C1[X(CH4)]
 Deg. of freedom     9
 Full point group                 C1      NOp   1
 Largest Abelian subgroup         C1      NOp   1
 Largest concise Abelian subgroup C1      NOp   1
                         Standard orientation:                         
 ---------------------------------------------------------------------
 Center     Atomic      Atomic             Coordinates (Angstroms)
 Number     Number       Type             X           Y           Z
 ---------------------------------------------------------------------
      1          6           0        0.000349   -0.017821   -0.048901
      2          1           0       -0.993805   -0.208142   -0.475948
      3          1           0        1.006594   -0.140621   -0.482678
      4          1           0        0.031378   -0.569151    0.912991
      5          1           0       -0.046259    1.024842    0.339039
 ---------------------------------------------------------------------
 Rotational constants (GHZ):    174.6227244    146.0175451    145.5413178
 Standard basis: def2SVP (5D, 7F)
 There are    35 symmetry adapted cartesian basis functions of A   symmetry.
 There are    34 symmetry adapted basis functions of A   symmetry.
    34 basis functions,    53 primitive gaussians,    35 cartesian basis functions
     5 alpha electrons        5 beta electrons
       nuclear repulsion energy        13.2616213281 Hartrees.
 NAtoms=    5 NActive=    5 NUniq=    5 SFac= 1.00D+00 NAtFMM=   60 NAOKFM=F Big=F
 Integral buffers will be    131072 words long.
 Raffenetti 2 integral format.
 Two-electron integral symmetry is turned on.
 One-electron integrals computed using PRISM.
   1 Symmetry operations used in ECPInt.
 ECPInt:  NShTT=     171 NPrTT=     553 LenC2=     172 LenP2D=     539.
 LDataN:  DoStor=T MaxTD1= 4 Len=   56
 NBasis=    34 RedAO= T EigKep=  1.42D-02  NBF=    34
 NBsUse=    34 1.00D-06 EigRej= -1.00D+00 NBFU=    34
 Initial guess from the checkpoint file:  "/home/aleph/fd/shug5449/autodE/tests/data/Gau-195859.chk"
 B after Tr=     0.000000    0.000000    0.000000
         Rot=    0.889288    0.457180    0.006670    0.010441 Ang=  54.43 deg.
 ExpMin= 1.22D-01 ExpMax= 1.24D+03 ExpMxC= 1.86D+02 IAcc=1 IRadAn=         1 AccDes= 0.00D+00
 Harris functional with IExCor= 1009 and IRadAn=       1 diagonalized for initial guess.
 HarFok:  IExCor= 1009 AccDes= 0.00D+00 IRadAn=         1 IDoV= 1 UseB2=F ITyADJ=14
 ICtDFT=  3500011 ScaDFX=  1.000000  1.000000  1.000000  1.000000
 FoFCou: FMM=F IPFlag=           0 FMFlag=      100000 FMFlg1=           0
         NFxFlg=           0 DoJE=T BraDBF=F KetDBF=T FulRan=T
         wScrn=  0.000000 ICntrl=     500 IOpCl=  0 I1Cent=   200000004 NGrid=           0
         NMat0=    1 NMatS0=      1 NMatT0=    0 NMatD0=    1 NMtDS0=    0 NMtDT0=    0
 Petite list used in FoFCou.
 Keep R1 ints in memory in canonical form, NReq=1060351.
 Requested convergence on RMS density matrix=1.00D-08 within 128 cycles.
 Requested convergence on MAX density matrix=1.00D-06.
 Requested convergence on             energy=1.00D-06.
 No special actions if energy rises.
 Integral accuracy reduced to 1.0D-05 until final iterations.
 Initial convergence to 1.0D-05 achieved.  Increase integral accuracy.
 SCF Done:  E(RPBE1PBE) =  -40.4183673704     A.U. after    9 cycles
            NFock=  9  Conv=0.10D-08     -V/T= 2.0157
   1 Symmetry operations used in ECPInt.
 ECPInt:  NShTT=     171 NPrTT=     553 LenC2=     172 LenP2D=     539.
 LDataN:  DoStor=T MaxTD1= 5 Len=  102
 Calling FoFJK, ICntrl=      2127 FMM=F ISym2X=0 I1Cent= 0 IOpClX= 0 NMat=1 NMatS=1 NMatT=0.
 ***** Axes restored to original set *****
 -------------------------------------------------------------------
 Center     Atomic                   Forces (Hartrees/Bohr)
 Number     Number              X              Y              Z
 -------------------------------------------------------------------
      1        6           0.044640998   -0.002092176    0.024981896
      2        1          -0.014607362   -0.011440649   -0.012633918
      3        1          -0.016611957    0.014271052   -0.006131272
      4        1          -0.006732233    0.000217089   -0.001315446
      5        1          -0.006689445   -0.000955316   -0.004901260
 -------------------------------------------------------------------
 Cartesian Forces:  Max     0.044640998 RMS     0.015830702

 GradGradGradGradGradGradGradGradGradGradGradGradGradGradGradGradGradGrad
 Berny optimization.
 FormGI is forming the generalized inverse of G from B-inverse, IUseBI=4.
 Internal  Forces:  Max     0.015255112 RMS     0.007727935
 Search for a saddle point.
 Step number   5 out of a maximum of  100
 All quantities printed in internal units (Hartrees-Bohrs-Radians)
 Swapping is turned off.
 Update second derivatives using D2CorX and points    2    3    4    5
 The second derivative matrix:
                          R1        R2        R3        R4        A1
           R1           0.34399
           R2          -0.00044   0.32939
           R3          -0.00081   0.00037   0.34859
           R4           0.00099   0.00092   0.00008   0.32981
           A1           0.00017  -0.00001  -0.00286  -0.00271   0.01800
           A2           0.00236  -0.00031   0.00300  -0.00474  -0.00831
           A3           0.00651  -0.00389  -0.00459   0.00426  -0.01359
           A4          -0.00055   0.00276   0.00348  -0.00439  -0.00731
           A5          -0.00436   0.00628  -0.00499   0.00398  -0.01299
           A6          -0.00421  -0.00421   0.00553   0.00471   0.01853
           D1           0.00156   0.00194   0.00106  -0.01052   0.01062
           D2          -0.00125  -0.00120   0.00818  -0.00104  -0.00781
           D3           0.00404  -0.00550   0.00400  -0.00044  -0.00366
           D4           0.00529  -0.00430  -0.00418   0.00060   0.00415
                          A2        A3        A4        A5        A6
           A2           0.03265
           A3          -0.01987   0.07283
           A4          -0.00544   0.02322   0.03044
           A5           0.02412  -0.03394  -0.02027   0.07392
           A6          -0.02237  -0.02905  -0.02227  -0.02775   0.08977
           D1           0.00946  -0.01446   0.01071  -0.01511  -0.00909
           D2           0.00753  -0.00388   0.00731  -0.00535   0.00765
           D3           0.01307   0.00242  -0.00594  -0.00737   0.00449
           D4           0.00554   0.00630  -0.01326  -0.00202  -0.00316
                          D1        D2        D3        D4
           D1           0.02858
           D2           0.00261   0.01443
           D3           0.00097   0.00702   0.01707
           D4          -0.00164  -0.00741   0.01005   0.01745
 ITU=  0  0  0  0  0
     Eigenvalues ---    0.03546   0.04260   0.05761   0.12515   0.12658
     Eigenvalues ---    0.32935   0.33108   0.34438   0.34949
 Eigenvectors required to have negative eigenvalues:
                          D2        A1        D4        D1        A4
   1                   -0.61038   0.47015   0.35924   0.27163  -0.25720
                          D3        A6        A2        R3        A5
   1                   -0.25114  -0.20377  -0.17386   0.03524  -0.02832
 RFO step:  Lambda0=4.799420478D-02 Lambda=-2.89990191D-03.
 Linear search not attempted -- option 19 set.
 Maximum step size (   0.100) exceeded in Quadratic search.
    -- Step size scaled by   0.084
 Iteration  1 RMS(Cart)=  0.02523659 RMS(Int)=  0.00106030
 Iteration  2 RMS(Cart)=  0.00077416 RMS(Int)=  0.00068123
 Iteration  3 RMS(Cart)=  0.00000023 RMS(Int)=  0.00068123
 Variable       Old X    -DE/DX   Delta X   Delta X   Delta X     New X
                                 (Linear)    (Quad)   (Total)
    R1        2.07606  -0.00309   0.00000  -0.00246  -0.00246   2.07360
    R2        2.08365  -0.00583   0.00000  -0.00189  -0.00189   2.08176
    R3        2.09595  -0.00242   0.00000   0.00577   0.00577   2.10172
    R4        2.10415  -0.00514   0.00000  -0.00074  -0.00074   2.10341
    A1        2.28314  -0.01445   0.00000   0.07357   0.07242   2.35556
    A2        1.85076   0.00164   0.00000  -0.03176  -0.03176   1.81899
    A3        1.83359   0.00576   0.00000   0.01090   0.00951   1.84309
    A4        1.83412   0.00294   0.00000  -0.04796  -0.04834   1.78578
    A5        1.85412   0.00278   0.00000  -0.00090  -0.00236   1.85177
    A6        1.73604   0.00682   0.00000  -0.03063  -0.03102   1.70502
    D1        2.46847  -0.01526   0.00000   0.03273   0.03214   2.50061
    D2       -2.47072   0.01210   0.00000  -0.10468  -0.10518  -2.57591
    D3        1.91235   0.00568   0.00000  -0.04159  -0.04202   1.87033
    D4       -1.90011  -0.00642   0.00000   0.06309   0.06316  -1.83695
         Item               Value     Threshold  Converged?
 Maximum Force            0.015255     0.000450     NO 
 RMS     Force            0.007728     0.000300     NO 
 Maximum Displacement     0.040935     0.001800     NO 
 RMS     Displacement     0.025169     0.001200     NO 
 Predicted change in Energy= 4.295280D-03
 GradGradGradGradGradGradGradGradGradGradGradGradGradGradGradGradGradGrad

                          Input orientation:                          
 ---------------------------------------------------------------------
 Center     Atomic      Atomic             Coordinates (Angstroms)
 Number     Number       Type             X           Y           Z
 ---------------------------------------------------------------------
      1          6           0       -0.099381    0.009253   -0.076262
      2          1           0       -0.627545    0.968196   -0.001805
      3          1           0       -0.311051   -0.961110   -0.552875
      4          1           0        0.089169   -0.281587    0.980530
      5          1           0        0.948809    0.265247   -0.349588
 ---------------------------------------------------------------------
                    Distance matrix (angstroms):
                    1          2          3          4          5
     1  C    0.000000
     2  H    1.097303   0.000000
     3  H    1.101620   2.031273   0.000000
     4  H    1.112182   1.743737   1.724314   0.000000
     5  H    1.113078   1.760677   1.769894   1.675476   0.000000
 Stoichiometry    CH4
 Framework group  C1[X(CH4)]
 Deg. of freedom     9
 Full point group                 C1      NOp   1
 Largest Abelian subgroup         C1      NOp   1
 Largest concise Abelian subgroup C1      NOp   1
                         Standard orientation:                         
 ---------------------------------------------------------------------
 Center     Atomic      Atomic             Coordinates (Angstroms)
 Number     Number       Type             X           Y           Z
 ---------------------------------------------------------------------
      1          6           0       -0.002503   -0.032511   -0.053678
      2          1           0       -1.017781   -0.330009   -0.344846
      3          1           0        1.012453   -0.289945   -0.395963
      4          1           0        0.048325   -0.262142    1.033352
      5          1           0       -0.027982    1.077161    0.029526
 ---------------------------------------------------------------------
 Rotational constants (GHZ):    178.7964459    145.9497487    143.3938691
 Standard basis: def2SVP (5D, 7F)
 There are    35 symmetry adapted cartesian basis functions of A   symmetry.
 There are    34 symmetry adapted basis functions of A   symmetry.
    34 basis functions,    53 primitive gaussians,    35 cartesian basis functions
     5 alpha electrons        5 beta electrons
       nuclear repulsion energy        13.2692629309 Hartrees.
 NAtoms=    5 NActive=    5 NUniq=    5 SFac= 1.00D+00 NAtFMM=   60 NAOKFM=F Big=F
 Integral buffers will be    131072 words long.
 Raffenetti 2 integral format.
 Two-electron integral symmetry is turned on.
 One-electron integrals computed using PRISM.
   1 Symmetry operations used in ECPInt.
 ECPInt:  NShTT=     171 NPrTT=     553 LenC2=     172 LenP2D=     539.
 LDataN:  DoStor=T MaxTD1= 4 Len=   56
 NBasis=    34 RedAO= T EigKep=  1.40D-02  NBF=    34
 NBsUse=    34 1.00D-06 EigRej= -1.00D+00 NBFU=    34
 Initial guess from the checkpoint file:  "/home/aleph/fd/shug5449/autodE/tests/data/Gau-195859.chk"
 B after Tr=     0.000000    0.000000    0.000000
         Rot=    0.988088    0.153582   -0.008263    0.005197 Ang=  17.71 deg.
 ExpMin= 1.22D-01 ExpMax= 1.24D+03 ExpMxC= 1.86D+02 IAcc=1 IRadAn=         1 AccDes= 0.00D+00
 Harris functional with IExCor= 1009 and IRadAn=       1 diagonalized for initial guess.
 HarFok:  IExCor= 1009 AccDes= 0.00D+00 IRadAn=         1 IDoV= 1 UseB2=F ITyADJ=14
 ICtDFT=  3500011 ScaDFX=  1.000000  1.000000  1.000000  1.000000
 FoFCou: FMM=F IPFlag=           0 FMFlag=      100000 FMFlg1=           0
         NFxFlg=           0 DoJE=T BraDBF=F KetDBF=T FulRan=T
         wScrn=  0.000000 ICntrl=     500 IOpCl=  0 I1Cent=   200000004 NGrid=           0
         NMat0=    1 NMatS0=      1 NMatT0=    0 NMatD0=    1 NMtDS0=    0 NMtDT0=    0
 Petite list used in FoFCou.
 Keep R1 ints in memory in canonical form, NReq=1060351.
 Requested convergence on RMS density matrix=1.00D-08 within 128 cycles.
 Requested convergence on MAX density matrix=1.00D-06.
 Requested convergence on             energy=1.00D-06.
 No special actions if energy rises.
 Integral accuracy reduced to 1.0D-05 until final iterations.
 Initial convergence to 1.0D-05 achieved.  Increase integral accuracy.
 SCF Done:  E(RPBE1PBE) =  -40.4140782948     A.U. after    9 cycles
            NFock=  9  Conv=0.14D-08     -V/T= 2.0156
   1 Symmetry operations used in ECPInt.
 ECPInt:  NShTT=     171 NPrTT=     553 LenC2=     172 LenP2D=     539.
 LDataN:  DoStor=T MaxTD1= 5 Len=  102
 Calling FoFJK, ICntrl=      2127 FMM=F ISym2X=0 I1Cent= 0 IOpClX= 0 NMat=1 NMatS=1 NMatT=0.
 ***** Axes restored to original set *****
 -------------------------------------------------------------------
 Center     Atomic                   Forces (Hartrees/Bohr)
 Number     Number              X              Y              Z
 -------------------------------------------------------------------
      1        6           0.050135247   -0.005583695    0.034470703
      2        1          -0.016829333   -0.011080567   -0.016150241
      3        1          -0.019703503    0.015304086   -0.010310457
      4        1          -0.006601288    0.001080288   -0.000886697
      5        1          -0.007001124    0.000279888   -0.007123308
 -------------------------------------------------------------------
 Cartesian Forces:  Max     0.050135247 RMS     0.018750822

 GradGradGradGradGradGradGradGradGradGradGradGradGradGradGradGradGradGrad
 Berny optimization.
 FormGI is forming the generalized inverse of G from B-inverse, IUseBI=4.
 Internal  Forces:  Max     0.017137097 RMS     0.008941201
 Search for a saddle point.
 Step number   6 out of a maximum of  100
 All quantities printed in internal units (Hartrees-Bohrs-Radians)
 Swapping is turned off.
 Update second derivatives using D2CorX and points    3    4    5    6
 The second derivative matrix:
                          R1        R2        R3        R4        A1
           R1           0.34399
           R2          -0.00044   0.32939
           R3          -0.00084   0.00034   0.34840
           R4           0.00099   0.00092   0.00008   0.32981
           A1          -0.00002  -0.00023  -0.00359  -0.00269   0.01744
           A2           0.00246  -0.00021   0.00351  -0.00475  -0.00691
           A3           0.00646  -0.00393  -0.00473   0.00426  -0.01372
           A4          -0.00041   0.00291   0.00387  -0.00440  -0.00757
           A5          -0.00436   0.00628  -0.00528   0.00399  -0.01483
           A6          -0.00414  -0.00414   0.00578   0.00470   0.01863
           D1           0.00146   0.00184   0.00073  -0.01051   0.01058
           D2          -0.00097  -0.00089   0.00914  -0.00107  -0.00749
           D3           0.00416  -0.00536   0.00443  -0.00045  -0.00340
           D4           0.00513  -0.00447  -0.00471   0.00061   0.00409
                          A2        A3        A4        A5        A6
           A2           0.03140
           A3          -0.01964   0.07271
           A4          -0.00597   0.02332   0.03084
           A5           0.02513  -0.03421  -0.01923   0.07364
           A6          -0.02285  -0.02908  -0.02202  -0.02704   0.08973
           D1           0.01005  -0.01448   0.01041  -0.01603  -0.00912
           D2           0.00584  -0.00370   0.00790  -0.00285   0.00773
           D3           0.01227   0.00251  -0.00574  -0.00626   0.00446
           D4           0.00643   0.00621  -0.01364  -0.00340  -0.00326
                          D1        D2        D3        D4
           D1           0.02870
           D2           0.00241   0.01460
           D3           0.00094   0.00694   0.01696
           D4          -0.00147  -0.00766   0.01002   0.01769
 ITU=  0  0  0  0  0  0
     Eigenvalues ---    0.03403   0.04312   0.05668   0.12400   0.12539
     Eigenvalues ---    0.32934   0.33108   0.34436   0.34942
 Eigenvectors required to have negative eigenvalues:
                          D2        D3        A1        A2        D4
   1                   -0.62581  -0.42447   0.42054  -0.32998   0.20134
                          A6        D1        A4        A5        A3
   1                   -0.19155   0.19031  -0.14312   0.06962  -0.04295
 RFO step:  Lambda0=4.972472508D-02 Lambda=-5.05003418D-03.
 Linear search not attempted -- option 19 set.
 Maximum step size (   0.100) exceeded in Quadratic search.
    -- Step size scaled by   0.093
 Iteration  1 RMS(Cart)=  0.02608980 RMS(Int)=  0.00129351
 Iteration  2 RMS(Cart)=  0.00087105 RMS(Int)=  0.00093250
 Iteration  3 RMS(Cart)=  0.00000021 RMS(Int)=  0.00093250
 Variable       Old X    -DE/DX   Delta X   Delta X   Delta X     New X
                                 (Linear)    (Quad)   (Total)
    R1        2.07360  -0.00268   0.00000  -0.00003  -0.00003   2.07357
    R2        2.08176  -0.00523   0.00000  -0.00362  -0.00362   2.07814
    R3        2.10172  -0.00224   0.00000   0.00678   0.00678   2.10850
    R4        2.10341  -0.00478   0.00000  -0.00184  -0.00184   2.10158
    A1        2.35556  -0.01714   0.00000   0.06153   0.05935   2.41491
    A2        1.81899   0.00277   0.00000  -0.06593  -0.06644   1.75255
    A3        1.84309   0.00541   0.00000  -0.00230  -0.00409   1.83900
    A4        1.78578   0.00494   0.00000  -0.02107  -0.02093   1.76484
    A5        1.85177   0.00358   0.00000   0.02129   0.01961   1.87138
    A6        1.70502   0.00813   0.00000  -0.02679  -0.02691   1.67812
    D1        2.50061  -0.01592   0.00000   0.01531   0.01528   2.51588
    D2       -2.57591   0.01565   0.00000  -0.10629  -0.10707  -2.68297
    D3        1.87033   0.00689   0.00000  -0.07954  -0.07962   1.79071
    D4       -1.83695  -0.00876   0.00000   0.02675   0.02745  -1.80950
         Item               Value     Threshold  Converged?
 Maximum Force            0.017137     0.000450     NO 
 RMS     Force            0.008941     0.000300     NO 
 Maximum Displacement     0.052033     0.001800     NO 
 RMS     Displacement     0.026152     0.001200     NO 
 Predicted change in Energy= 4.659914D-03
 GradGradGradGradGradGradGradGradGradGradGradGradGradGradGradGradGradGrad

                          Input orientation:                          
 ---------------------------------------------------------------------
 Center     Atomic      Atomic             Coordinates (Angstroms)
 Number     Number       Type             X           Y           Z
 ---------------------------------------------------------------------
      1          6           0       -0.104710    0.008230   -0.102568
      2          1           0       -0.618003    0.969533    0.025730
      3          1           0       -0.306331   -0.978700   -0.543775
      4          1           0        0.079142   -0.266051    0.963221
      5          1           0        0.949902    0.266987   -0.342608
 ---------------------------------------------------------------------
                    Distance matrix (angstroms):
                    1          2          3          4          5
     1  C    0.000000
     2  H    1.097285   0.000000
     3  H    1.099703   2.053555   0.000000
     4  H    1.115768   1.700461   1.710992   0.000000
     5  H    1.112107   1.757149   1.780541   1.657571   0.000000
 Stoichiometry    CH4
 Framework group  C1[X(CH4)]
 Deg. of freedom     9
 Full point group                 C1      NOp   1
 Largest Abelian subgroup         C1      NOp   1
 Largest concise Abelian subgroup C1      NOp   1
                         Standard orientation:                         
 ---------------------------------------------------------------------
 Center     Atomic      Atomic             Coordinates (Angstroms)
 Number     Number       Type             X           Y           Z
 ---------------------------------------------------------------------
      1          6           0        0.004026   -0.032773   -0.065557
      2          1           0       -1.009877   -0.351544   -0.338358
      3          1           0        1.042725   -0.293223   -0.315787
      4          1           0       -0.009788   -0.233776    1.031869
      5          1           0       -0.047213    1.075183    0.015618
 ---------------------------------------------------------------------
 Rotational constants (GHZ):    182.2403339    146.1975120    141.6198302
 Standard basis: def2SVP (5D, 7F)
 There are    35 symmetry adapted cartesian basis functions of A   symmetry.
 There are    34 symmetry adapted basis functions of A   symmetry.
    34 basis functions,    53 primitive gaussians,    35 cartesian basis functions
     5 alpha electrons        5 beta electrons
       nuclear repulsion energy        13.2771665741 Hartrees.
 NAtoms=    5 NActive=    5 NUniq=    5 SFac= 1.00D+00 NAtFMM=   60 NAOKFM=F Big=F
 Integral buffers will be    131072 words long.
 Raffenetti 2 integral format.
 Two-electron integral symmetry is turned on.
 One-electron integrals computed using PRISM.
   1 Symmetry operations used in ECPInt.
 ECPInt:  NShTT=     171 NPrTT=     553 LenC2=     172 LenP2D=     539.
 LDataN:  DoStor=T MaxTD1= 4 Len=   56
 NBasis=    34 RedAO= T EigKep=  1.39D-02  NBF=    34
 NBsUse=    34 1.00D-06 EigRej= -1.00D+00 NBFU=    34
 Initial guess from the checkpoint file:  "/home/aleph/fd/shug5449/autodE/tests/data/Gau-195859.chk"
 B after Tr=     0.000000    0.000000    0.000000
         Rot=    0.999642    0.013730    0.022316   -0.005433 Ang=   3.07 deg.
 ExpMin= 1.22D-01 ExpMax= 1.24D+03 ExpMxC= 1.86D+02 IAcc=1 IRadAn=         1 AccDes= 0.00D+00
 Harris functional with IExCor= 1009 and IRadAn=       1 diagonalized for initial guess.
 HarFok:  IExCor= 1009 AccDes= 0.00D+00 IRadAn=         1 IDoV= 1 UseB2=F ITyADJ=14
 ICtDFT=  3500011 ScaDFX=  1.000000  1.000000  1.000000  1.000000
 FoFCou: FMM=F IPFlag=           0 FMFlag=      100000 FMFlg1=           0
         NFxFlg=           0 DoJE=T BraDBF=F KetDBF=T FulRan=T
         wScrn=  0.000000 ICntrl=     500 IOpCl=  0 I1Cent=   200000004 NGrid=           0
         NMat0=    1 NMatS0=      1 NMatT0=    0 NMatD0=    1 NMtDS0=    0 NMtDT0=    0
 Petite list used in FoFCou.
 Keep R1 ints in memory in canonical form, NReq=1060351.
 Requested convergence on RMS density matrix=1.00D-08 within 128 cycles.
 Requested convergence on MAX density matrix=1.00D-06.
 Requested convergence on             energy=1.00D-06.
 No special actions if energy rises.
 Integral accuracy reduced to 1.0D-05 until final iterations.
 Initial convergence to 1.0D-05 achieved.  Increase integral accuracy.
 SCF Done:  E(RPBE1PBE) =  -40.4093930722     A.U. after    9 cycles
            NFock=  9  Conv=0.20D-08     -V/T= 2.0155
   1 Symmetry operations used in ECPInt.
 ECPInt:  NShTT=     171 NPrTT=     553 LenC2=     172 LenP2D=     539.
 LDataN:  DoStor=T MaxTD1= 5 Len=  102
 Calling FoFJK, ICntrl=      2127 FMM=F ISym2X=0 I1Cent= 0 IOpClX= 0 NMat=1 NMatS=1 NMatT=0.
 ***** Axes restored to original set *****
 -------------------------------------------------------------------
 Center     Atomic                   Forces (Hartrees/Bohr)
 Number     Number              X              Y              Z
 -------------------------------------------------------------------
      1        6           0.052746704   -0.003763460    0.045388442
      2        1          -0.019429797   -0.010255249   -0.020891989
      3        1          -0.021092748    0.015289073   -0.013110305
      4        1          -0.005410043   -0.001166981   -0.001520833
      5        1          -0.006814115   -0.000103383   -0.009865315
 -------------------------------------------------------------------
 Cartesian Forces:  Max     0.052746704 RMS     0.021296169

 GradGradGradGradGradGradGradGradGradGradGradGradGradGradGradGradGradGrad
 Berny optimization.
 FormGI is forming the generalized inverse of G from B-inverse, IUseBI=4.
 Internal  Forces:  Max     0.019277366 RMS     0.010075066
 Search for a saddle point.
 Step number   7 out of a maximum of  100
 All quantities printed in internal units (Hartrees-Bohrs-Radians)
 Swapping is turned off.
 Update second derivatives using D2CorX and points    4    5    6    7
[...]

 -------------------
 - Thermochemistry -
 -------------------
 Temperature   298.150 Kelvin.  Pressure   1.00000 Atm.
 Atom     1 has atomic number  6 and mass  12.00000
 Atom     2 has atomic number  1 and mass   1.00783
 Atom     3 has atomic number  1 and mass   1.00783
 Atom     4 has atomic number  1 and mass   1.00783
 Atom     5 has atomic number  1 and mass   1.00783
 Molecular mass:    16.03130 amu.
 Principal axes and moments of inertia in atomic units:
                           1         2         3
     Eigenvalues --     8.64018  12.39704  13.50194
           X            1.00000   0.00000   0.00008
           Y            0.00000   1.00000  -0.00048
           Z           -0.00008   0.00048   1.00000
 This molecule is an asymmetric top.
 Rotational symmetry number  1.
 Rotational temperatures (Kelvin)     10.02453     6.98665     6.41492
 Rotational constants (GHZ):         208.87765   145.57843   133.66536
    1 imaginary frequencies ignored.
 Zero-point vibrational energy     102540.0 (Joules/Mol)
                                   24.50765 (Kcal/Mol)
 Warning -- explicit consideration of   1 degrees of freedom as
           vibrations may cause significant error
 Vibrational temperatures:    612.08  2119.90  2217.21  2273.37  4068.84
          (Kelvin)           4116.59  4414.92  4842.51
 
 Zero-point correction=                           0.039055 (Hartree/Particle)
 Thermal correction to Energy=                    0.042187
 Thermal correction to Enthalpy=                  0.043131
 Thermal correction to Gibbs Free Energy=         0.019279
 Sum of electronic and zero-point Energies=            -40.303172
 Sum of electronic and thermal Energies=               -40.300040
 Sum of electronic and thermal Enthalpies=             -40.299096
 Sum of electronic and thermal Free Energies=          -40.322948
 
                     E (Thermal)             CV                S
                      KCal/Mol        Cal/Mol-Kelvin    Cal/Mol-Kelvin
 Total                   26.472              7.581             50.200
 Electronic               0.000              0.000              0.000
 Translational            0.889              2.981             34.261
 Rotational               0.889              2.981             15.033
 Vibrational             24.695              1.619              0.905
 Vibration     1          0.787              1.415              0.874
                       Q            Log10(Q)             Ln(Q)
 Total Bot       0.135565D-08         -8.867852        -20.418983
 Total V=0       0.124841D+10          9.096359         20.945140
 Vib (Bot)       0.124817D-17        -17.903725        -41.224850
 Vib (Bot)    1  0.411028D+00         -0.386128         -0.889093
 Vib (V=0)       0.114944D+01          0.060486          0.139273
 Vib (V=0)    1  0.114726D+01          0.059662          0.137376
 Electronic      0.100000D+01          0.000000          0.000000
 Translational   0.252295D+07          6.401908         14.740939
 Rotational      0.430492D+03          2.633965          6.064928
 ***** Axes restored to original set *****
 -------------------------------------------------------------------
 Center     Atomic                   Forces (Hartrees/Bohr)
 Number     Number              X              Y              Z
 -------------------------------------------------------------------
      1        6          -0.040252862    0.036990598    0.096591085
      2        1          -0.000199229    0.000062785    0.000212264
      3        1           0.020222542   -0.018605602   -0.048441852
      4        1          -0.000153573    0.000145353    0.000110878
      5        1           0.020383122   -0.018593134   -0.048472374
 -------------------------------------------------------------------
 Cartesian Forces:  Max     0.096591085 RMS     0.035148315
 FormGI is forming the generalized inverse of G from B-inverse, IUseBI=4.

 GradGradGradGradGradGradGradGradGradGradGradGradGradGradGradGradGradGrad
 Berny optimization.
 FormGI is forming the generalized inverse of G from B-inverse, IUseBI=4.
 Internal  Forces:  Max     0.000222195 RMS     0.000121518
 Search for a saddle point.
 Step number   1 out of a maximum of    2
 All quantities printed in internal units (Hartrees-Bohrs-Radians)
 Swapping is turned off.
 Second derivative matrix not updated -- analytic derivatives used.
 The second derivative matrix:
                          R1        R2        R3        R4        A1
           R1           0.28988
           R2           0.00573   0.36268
           R3          -0.00048   0.00574   0.28912
           R4           0.00576  -0.00882   0.00575   0.36259
           A1           0.00435   0.00503  -0.00439  -0.00504   0.02651
           A2           0.00456  -0.00246   0.00456  -0.00245  -0.00001
           A3           0.00838  -0.00594  -0.00840   0.00594  -0.03137
           A4          -0.00652   0.00856   0.00655  -0.00856  -0.00150
           A5          -0.01752   0.00125   0.01762  -0.00124   0.00669
           A6          -0.00628  -0.00765   0.00632   0.00766   0.00638
           D1           0.00396   0.00557  -0.00400  -0.00558   0.02646
           D2           0.00229  -0.00123   0.00229  -0.00123  -0.00895
           D3           0.00456  -0.00245   0.00456  -0.00246   0.00001
           D4           0.00227  -0.00123   0.00227  -0.00123   0.00896
                          A2        A3        A4        A5        A6
           A2           0.02819
           A3           0.00004   0.03537
           A4          -0.00004   0.00194   0.06653
           A5          -0.00003  -0.00553  -0.00059  -0.00156
           A6           0.00001  -0.00599  -0.06695  -0.00052   0.06658
           D1          -0.00001  -0.03131   0.00258   0.00666   0.00228
           D2           0.01409  -0.01709   0.01334   0.03585   0.01284
           D3           0.02819   0.00002  -0.00001  -0.00002  -0.00001
           D4           0.01410   0.01711  -0.01336  -0.03587  -0.01285
                          D1        D2        D3        D4
           D1           0.02667
           D2          -0.00815   0.00705
           D3           0.00000   0.01409   0.02819
           D4           0.00815   0.00704   0.01409   0.00705
 ITU=  0
     Eigenvalues ---   -0.06766   0.05809   0.06987   0.09062   0.13381
     Eigenvalues ---    0.28757   0.29354   0.35584   0.37318
 Eigenvectors required to have negative eigenvalues:
                          A5        D4        D2        A3        A4
   1                   -0.56917  -0.48531   0.48511   0.23502  -0.21041
                          A6        A1        D1        R3        R1
   1                   -0.20496   0.17885   0.16626   0.04511  -0.04482
 Angle between quadratic step and forces=  37.79 degrees.
 Linear search not attempted -- option 19 set.
 Iteration  1 RMS(Cart)=  0.00009726 RMS(Int)=  0.00148230
 Iteration  2 RMS(Cart)=  0.00000205 RMS(Int)=  0.00147882
 Iteration  3 RMS(Cart)=  0.00000238 RMS(Int)=  0.00147478
 Iteration  4 RMS(Cart)=  0.00000209 RMS(Int)=  0.00147125
 Iteration  5 RMS(Cart)=  0.00000208 RMS(Int)=  0.00146773
 Iteration  6 RMS(Cart)=  0.00000207 RMS(Int)=  0.00146421
 Iteration  7 RMS(Cart)=  0.00000206 RMS(Int)=  0.00146071
 Iteration  8 RMS(Cart)=  0.00000206 RMS(Int)=  0.00145723
 Iteration  9 RMS(Cart)=  0.00000205 RMS(Int)=  0.00145375
 Iteration 10 RMS(Cart)=  0.00000204 RMS(Int)=  0.00145028
 Iteration 11 RMS(Cart)=  0.00000204 RMS(Int)=  0.00144683
 Iteration 12 RMS(Cart)=  0.00000203 RMS(Int)=  0.00144339
 Iteration 13 RMS(Cart)=  0.00000202 RMS(Int)=  0.00143996
 Iteration 14 RMS(Cart)=  0.00000202 RMS(Int)=  0.00143653
 Iteration 15 RMS(Cart)=  0.00000201 RMS(Int)=  0.00143313
 Iteration 16 RMS(Cart)=  0.00000200 RMS(Int)=  0.00142973
 Iteration 17 RMS(Cart)=  0.00000200 RMS(Int)=  0.00142634
 Iteration 18 RMS(Cart)=  0.00000199 RMS(Int)=  0.00142296
 Iteration 19 RMS(Cart)=  0.00000199 RMS(Int)=  0.00141960
 Iteration 20 RMS(Cart)=  0.00000198 RMS(Int)=  0.00141624
 Iteration 21 RMS(Cart)=  0.00000197 RMS(Int)=  0.00141290
 Iteration 22 RMS(Cart)=  0.00000197 RMS(Int)=  0.00140956
 Iteration 23 RMS(Cart)=  0.00000196 RMS(Int)=  0.00140624
 Iteration 24 RMS(Cart)=  0.00000195 RMS(Int)=  0.00140293
 Iteration 25 RMS(Cart)=  0.00000195 RMS(Int)=  0.00139962
 Iteration 26 RMS(Cart)=  0.00000194 RMS(Int)=  0.00139633
 Iteration 27 RMS(Cart)=  0.00000194 RMS(Int)=  0.00139305
 Iteration 28 RMS(Cart)=  0.00000193 RMS(Int)=  0.00138978
 Iteration 29 RMS(Cart)=  0.00000192 RMS(Int)=  0.00138652
 Iteration 30 RMS(Cart)=  0.00000192 RMS(Int)=  0.00138326
 Iteration 31 RMS(Cart)=  0.00000191 RMS(Int)=  0.00138002
 Iteration 32 RMS(Cart)=  0.00000191 RMS(Int)=  0.00137679
 Iteration 33 RMS(Cart)=  0.00000190 RMS(Int)=  0.00137357
 Iteration 34 RMS(Cart)=  0.00000189 RMS(Int)=  0.00137036
 Iteration 35 RMS(Cart)=  0.00000189 RMS(Int)=  0.00136716
 Iteration 36 RMS(Cart)=  0.00000188 RMS(Int)=  0.00136396
 Iteration 37 RMS(Cart)=  0.00000188 RMS(Int)=  0.00136078
 Iteration 38 RMS(Cart)=  0.00000187 RMS(Int)=  0.00135761
 Iteration 39 RMS(Cart)=  0.00000187 RMS(Int)=  0.00135444
 Iteration 40 RMS(Cart)=  0.00000186 RMS(Int)=  0.00135129
 Iteration 41 RMS(Cart)=  0.00000186 RMS(Int)=  0.00134815
 Iteration 42 RMS(Cart)=  0.00000185 RMS(Int)=  0.00134501
 Iteration 43 RMS(Cart)=  0.00000184 RMS(Int)=  0.00134188
 Iteration 44 RMS(Cart)=  0.00000184 RMS(Int)=  0.00133877
 Iteration 45 RMS(Cart)=  0.00000183 RMS(Int)=  0.00133566
 Iteration 46 RMS(Cart)=  0.00000183 RMS(Int)=  0.00133256
 Iteration 47 RMS(Cart)=  0.00000182 RMS(Int)=  0.00132947
 Iteration 48 RMS(Cart)=  0.00000182 RMS(Int)=  0.00132639
 Iteration 49 RMS(Cart)=  0.00000181 RMS(Int)=  0.00132332
 Iteration 50 RMS(Cart)=  0.00000181 RMS(Int)=  0.00132026
 Iteration 51 RMS(Cart)=  0.00000180 RMS(Int)=  0.00131721
 Iteration 52 RMS(Cart)=  0.00000180 RMS(Int)=  0.00131416
 Iteration 53 RMS(Cart)=  0.00000179 RMS(Int)=  0.00131112
 Iteration 54 RMS(Cart)=  0.00000179 RMS(Int)=  0.00130810
 Iteration 55 RMS(Cart)=  0.00000178 RMS(Int)=  0.00130508
 Iteration 56 RMS(Cart)=  0.00000178 RMS(Int)=  0.00130207
 Iteration 57 RMS(Cart)=  0.00000177 RMS(Int)=  0.00129907
 Iteration 58 RMS(Cart)=  0.00000177 RMS(Int)=  0.00129608
 Iteration 59 RMS(Cart)=  0.00000176 RMS(Int)=  0.00129309
 Iteration 60 RMS(Cart)=  0.00000176 RMS(Int)=  0.00129012
 Iteration 61 RMS(Cart)=  0.00000175 RMS(Int)=  0.00128715
 Iteration 62 RMS(Cart)=  0.00000175 RMS(Int)=  0.00128419
 Iteration 63 RMS(Cart)=  0.00000174 RMS(Int)=  0.00128124
 Iteration 64 RMS(Cart)=  0.00000174 RMS(Int)=  0.00127829
 Iteration 65 RMS(Cart)=  0.00000173 RMS(Int)=  0.00127536
 Iteration 66 RMS(Cart)=  0.00000173 RMS(Int)=  0.00127243
 Iteration 67 RMS(Cart)=  0.00000172 RMS(Int)=  0.00126952
 Iteration 68 RMS(Cart)=  0.00000172 RMS(Int)=  0.00126661
 Iteration 69 RMS(Cart)=  0.00000171 RMS(Int)=  0.00126370
 Iteration 70 RMS(Cart)=  0.00000171 RMS(Int)=  0.00126081
 Iteration 71 RMS(Cart)=  0.00000170 RMS(Int)=  0.00125792
 Iteration 72 RMS(Cart)=  0.00000170 RMS(Int)=  0.00125504
 Iteration 73 RMS(Cart)=  0.00000169 RMS(Int)=  0.00125217
 Iteration 74 RMS(Cart)=  0.00000169 RMS(Int)=  0.00124931
 Iteration 75 RMS(Cart)=  0.00000168 RMS(Int)=  0.00124645
 Iteration 76 RMS(Cart)=  0.00000168 RMS(Int)=  0.00124361
 Iteration 77 RMS(Cart)=  0.00000168 RMS(Int)=  0.00124077
 Iteration 78 RMS(Cart)=  0.00000167 RMS(Int)=  0.00123793
 Iteration 79 RMS(Cart)=  0.00000167 RMS(Int)=  0.00123511
 Iteration 80 RMS(Cart)=  0.00000166 RMS(Int)=  0.00123229
 Iteration 81 RMS(Cart)=  0.00000166 RMS(Int)=  0.00122948
 Iteration 82 RMS(Cart)=  0.00000165 RMS(Int)=  0.00122668
 Iteration 83 RMS(Cart)=  0.00000165 RMS(Int)=  0.00122388
 Iteration 84 RMS(Cart)=  0.00000165 RMS(Int)=  0.00122109
 Iteration 85 RMS(Cart)=  0.00000164 RMS(Int)=  0.00121831
 Iteration 86 RMS(Cart)=  0.00000164 RMS(Int)=  0.00121554
 Iteration 87 RMS(Cart)=  0.00000163 RMS(Int)=  0.00121277
 Iteration 88 RMS(Cart)=  0.00000163 RMS(Int)=  0.00121001
 Iteration 89 RMS(Cart)=  0.00000162 RMS(Int)=  0.00120726
 Iteration 90 RMS(Cart)=  0.00000162 RMS(Int)=  0.00120452
 Iteration 91 RMS(Cart)=  0.00000162 RMS(Int)=  0.00120178
 Iteration 92 RMS(Cart)=  0.00000161 RMS(Int)=  0.00119905
 Iteration 93 RMS(Cart)=  0.00000161 RMS(Int)=  0.00119632
 Iteration 94 RMS(Cart)=  0.00000160 RMS(Int)=  0.00119361
 Iteration 95 RMS(Cart)=  0.00000160 RMS(Int)=  0.00119090
 Iteration 96 RMS(Cart)=  0.00000160 RMS(Int)=  0.00118819
 Iteration 97 RMS(Cart)=  0.00000159 RMS(Int)=  0.00118550
 Iteration 98 RMS(Cart)=  0.00000159 RMS(Int)=  0.00118281
 Iteration 99 RMS(Cart)=  0.00000158 RMS(Int)=  0.00118012
 Iteration100 RMS(Cart)=  0.00000158 RMS(Int)=  0.00117745
 New curvilinear step not converged.
 ITry= 1 IFail=1 DXMaxC= 5.19D-04 DCOld= 1.00D+10 DXMaxT= 1.00D-01 DXLimC= 3.00D+00 Rises=F
 Iteration  1 RMS(Cart)=  0.00010701 RMS(Int)=  0.00129856
 Iteration  2 RMS(Cart)=  0.00010706 RMS(Int)=  0.00110763
 Iteration  3 RMS(Cart)=  0.00010715 RMS(Int)=  0.00091692
 Iteration  4 RMS(Cart)=  0.00010731 RMS(Int)=  0.00072657
 Iteration  5 RMS(Cart)=  0.00010749 RMS(Int)=  0.00053709
 Iteration  6 RMS(Cart)=  0.00010766 RMS(Int)=  0.00034989
 Iteration  7 RMS(Cart)=  0.00010727 RMS(Int)=  0.00017089
 Iteration  8 RMS(Cart)=  0.00009904 RMS(Int)=  0.00003818
 Iteration  9 RMS(Cart)=  0.00002294 RMS(Int)=  0.00000413
 Iteration 10 RMS(Cart)=  0.00000222 RMS(Int)=  0.00000056
 Iteration 11 RMS(Cart)=  0.00000002 RMS(Int)=  0.00000056
 ITry= 2 IFail=0 DXMaxC= 1.64D-03 DCOld= 1.00D+10 DXMaxT= 1.00D-01 DXLimC= 3.00D+00 Rises=F
 Variable       Old X    -DE/DX   Delta X   Delta X   Delta X     New X
                                 (Linear)    (Quad)   (Total)
    R1        2.13391   0.00022   0.00000   0.00097   0.00087   2.13479
    R2        2.06907   0.00006   0.00000   0.00015   0.00014   2.06921
    R3        2.13475   0.00004   0.00000   0.00014   0.00013   2.13487
    R4        2.06914   0.00007   0.00000   0.00009   0.00008   2.06922
    A1        1.57200  -0.00011   0.00000  -0.00120  -0.00108   1.57092
    A2        1.63216  -0.00017   0.00000  -0.00252  -0.00227   1.62988
    A3        1.57042  -0.00001   0.00000   0.00038   0.00034   1.57076
    A4        1.57057   0.00005   0.00000   0.00023   0.00020   1.57077
    A5        3.14046   0.00017   0.00000   0.00113   0.00102   3.14148
    A6        1.57020   0.00008   0.00000   0.00060   0.00054   1.57074
    D1        1.57199  -0.00011   0.00000  -0.00119  -0.00107   1.57092
    D2        2.38398  -0.00002   0.00000   0.00163   0.00147   2.38544
    D3        1.63216  -0.00017   0.00000  -0.00252  -0.00227   1.62988
    D4       -0.75182  -0.00015   0.00000  -0.00415  -0.00374  -0.75556
         Item               Value     Threshold  Converged?
 Maximum Force            0.000222     0.000450     YES
 RMS     Force            0.000122     0.000300     YES
 Maximum Displacement     0.001640     0.001800     YES
 RMS     Displacement     0.000875     0.001200     YES
 Predicted change in Energy=-1.101460D-06
 Optimization completed.
    -- Stationary point found.
                           ----------------------------
                           !   Optimized Parameters   !
                           ! (Angstroms and Degrees)  !
 --------------------------                            --------------------------
 ! Name  Definition              Value          Derivative Info.                !
 --------------------------------------------------------------------------------
 ! R1    R(1,2)                  1.1292         -DE/DX =    0.0002              !
 ! R2    R(1,3)                  1.0949         -DE/DX =    0.0001              !
 ! R3    R(1,4)                  1.1297         -DE/DX =    0.0                 !
 ! R4    R(1,5)                  1.0949         -DE/DX =    0.0001              !
 ! A1    A(2,1,3)               90.0689         -DE/DX =   -0.0001              !
 ! A2    A(2,1,4)               93.5156         -DE/DX =   -0.0002              !
 ! A3    A(2,1,5)               89.9783         -DE/DX =    0.0                 !
 ! A4    A(3,1,4)               89.9869         -DE/DX =    0.0                 !
 ! A5    A(3,1,5)              179.935          -DE/DX =    0.0002              !
 ! A6    A(4,1,5)               89.9656         -DE/DX =    0.0001              !
 ! D1    D(2,1,4,3)             90.0682         -DE/DX =   -0.0001              !
 ! D2    D(2,1,5,3)            136.5918         -DE/DX =    0.0                 !
 ! D3    D(2,1,5,4)             93.5156         -DE/DX =   -0.0002              !
 ! D4    D(3,1,5,4)            -43.0762         -DE/DX =   -0.0002              !
 --------------------------------------------------------------------------------
 GradGradGradGradGradGradGradGradGradGradGradGradGradGradGradGradGradGrad

 1\1\GINC-ALEPH\Freq\RPBE1PBE\def2SVP\C1H4\SHUG5449\16-Dec-2019\0\\#N G
 eom=AllCheck Guess=TCheck SCRF=Check GenChk RPBE1PBE/def2SVP Freq\\tes
 t_ts_reopt_optts\\0,1\C,0.112345107,-0.1031639491,-0.2693123758\H,-0.5
 919848583,0.7362835479,0.0034186315\H,-0.7372518256,-0.7875047349,-0.3
 625002063\H,0.2542860882,-0.4259359606,0.8039083236\H,0.9626054887,0.5
 803210967,-0.1755143729\\Version=EM64L-G09RevD.01\State=1-A\HF=-40.342
 227\RMSD=6.771e-10\RMSF=3.515e-02\ZeroPoint=0.0390554\Thermal=0.042186
 6\Dipole=-0.1234699,0.1132411,0.2957903\DipoleDeriv=-0.3490828,-0.0645
 423,0.0045531,-0.0645625,-0.3175112,-0.0204676,0.0045338,-0.0204799,-0
 .2912097,-0.0594541,0.1512298,0.0389716,0.1456969,-0.108572,-0.0443352
 ,0.0796757,-0.0949903,0.0358634,0.1778826,-0.0679291,-0.0541587,-0.025
 1206,0.1868544,-0.021453,0.0078349,0.0237598,0.24662,0.0627642,0.00600
 18,-0.0085354,0.0115215,0.045006,0.052459,-0.0491955,0.1030532,-0.2404
 969,0.1678901,-0.0247603,0.0191693,-0.0675354,0.1942227,0.0337967,-0.0
 428489,-0.0113428,0.2492233\Polar=13.9825083,-0.3589198,14.2559336,0.3
 775265,-0.470692,13.7737477\PG=C01 [X(C1H4)]\NImag=1\\0.59007118,0.246
 63465,0.48455550,0.04332975,0.01766227,0.27104327,-0.12184011,0.096998
 48,0.02876135,0.14904247,0.09607720,-0.15573995,-0.03352662,-0.1079906
 5,0.18704197,0.03508635,-0.04141827,-0.05735361,-0.03348103,0.04269751
 ,0.05092899,-0.20708954,-0.18098773,-0.03747291,0.00655445,0.01145873,
 0.00914155,0.20622816,-0.17167201,-0.13808648,-0.02656196,-0.01205727,
 -0.02670555,-0.01898770,0.16890758,0.16552799,-0.02402954,-0.01676381,
 0.00683173,-0.00304346,-0.00715261,-0.00058021,0.04300984,0.03895835,0
 .02635492,-0.04535505,0.00848493,-0.02007824,-0.00555086,0.00720465,-0
 .02310835,-0.00492352,0.00053927,-0.01745211,0.05540961,0.00934708,-0.
 05929317,0.05071556,0.00381463,-0.01080748,0.02762486,-0.00938151,0.00
 616089,-0.02193831,-0.00071763,0.06905328,-0.02641972,0.05858114,-0.22
 955136,0.00171113,-0.00322779,0.00579320,-0.00997712,0.00421911,-0.022
 02805,0.03407082,-0.07009104,0.26189078,-0.21578648,-0.17113033,-0.014
 53995,-0.02820596,-0.00674993,0.01236148,-0.00076955,0.01428243,0.0015
 1527,0.00041982,-0.00306258,0.00061489,0.24434217,-0.18038692,-0.13143
 590,-0.00828926,0.01923481,0.00621100,-0.00991640,0.01000293,-0.006896
 85,0.00689638,-0.01551122,-0.00511352,0.01051858,0.16666041,0.13723527
 ,-0.02796683,-0.01806133,0.00902998,0.00605202,0.00120950,0.00121164,-
 0.00470137,0.00237220,-0.01057838,0.02656788,0.01368893,-0.01610456,0.
 00004831,0.00079071,0.01644133\\0.04025286,-0.03699060,-0.09659108,0.0
 0019923,-0.00006279,-0.00021226,-0.02022254,0.01860560,0.04844185,0.00
 015357,-0.00014535,-0.00011088,-0.02038312,0.01859313,0.04847237\\\@


 SEEN ON A WALL AT THE UNIVERSITY OF ILLINOIS AT CHICAGO CIRCLE:

 TO DO IS TO BE  -- SOCRATES
 TO BE IS TO DO  -- SARTRE
 OO BE DO BE DO  -- SINATRA
 Job cpu time:       0 days  0 hours  0 minutes  6.7 seconds.
 File lengths (MBytes):  RWF=      5 Int=      0 D2E=      0 Chk=      1 Scr=      1
 Normal termination of Gaussian 09 at Mon Dec 16 13:01:29 2019.
