
                                 *****************
                                 * O   R   C   A *
                                 *****************

           --- An Ab Initio, DFT and Semiempirical electronic structure package ---

                  #######################################################
                  #                        -***-                        #
                  #          Department of theory and spectroscopy      #
                  #               Directorship: Frank Neese             #
                  #        Max Planck Institute fuer Kohlenforschung    #
                  #                Kaiser Wilhelm Platz 1               #
                  #                 D-45470 Muelheim/Ruhr               #
                  #                      Germany                        #
                  #                                                     #
                  #                  All rights reserved                #
                  #                        -***-                        #
                  #######################################################


                         Program Version 4.1.1  - RELEASE  -


 With contributions from (in alphabetic order):
   Daniel Aravena         : Magnetic Properties
   Michael Atanasov       : Ab Initio Ligand Field Theory
   Alexander A. Auer      : GIAO ZORA
   Ute Becker             : Parallelization
   Giovanni Bistoni       : ED, Open-shell LED
   Martin Brehm           : Molecular dynamics
   Dmytro Bykov           : SCF Hessian
   Vijay G. Chilkuri      : MRCI spin determinant printing
   Dipayan Datta          : RHF DLPNO-CCSD density
   Achintya Kumar Dutta   : EOM-CC, STEOM-CC
   Dmitry Ganyushin       : Spin-Orbit,Spin-Spin,Magnetic field MRCI
   Miquel Garcia          : C-PCM Hessian
   Yang Guo               : DLPNO-NEVPT2, CIM, IAO-localization
   Andreas Hansen         : Spin unrestricted coupled pair/coupled cluster methods
   Benjamin Helmich-Paris : CASSCF linear response (MC-RPA)
   Lee Huntington         : MR-EOM, pCC
   Robert Izsak           : Overlap fitted RIJCOSX, COSX-SCS-MP3, EOM
   Christian Kollmar      : KDIIS, OOCD, Brueckner-CCSD(T), CCSD density
   Simone Kossmann        : Meta GGA functionals, TD-DFT gradient, OOMP2, MP2 Hessian
   Martin Krupicka        : AUTO-CI
   Lucas Lang             : DCDCAS
   Dagmar Lenk            : GEPOL surface, SMD
   Dimitrios Liakos       : Extrapolation schemes; parallel MDCI
   Dimitrios Manganas     : ROCIS; embedding schemes
   Dimitrios Pantazis     : SARC Basis sets
   Taras Petrenko         : DFT Hessian,TD-DFT gradient, ASA, ECA, R-Raman, ABS, FL, XAS/XES, NRVS
   Peter Pinski           : DLPNO-MP2, DLPNO-MP2 Gradient
   Christoph Reimann      : Effective Core Potentials
   Marius Retegan         : Local ZFS, SOC
   Christoph Riplinger    : Optimizer, TS searches, QM/MM, DLPNO-CCSD(T), (RO)-DLPNO pert. Triples
   Tobias Risthaus        : Range-separated hybrids, TD-DFT gradient, RPA, STAB
   Michael Roemelt        : Restricted open shell CIS
   Masaaki Saitow         : Open-shell DLPNO
   Barbara Sandhoefer     : DKH picture change effects
   Avijit Sen             : IP-ROCIS
   Kantharuban Sivalingam : CASSCF convergence, NEVPT2, FIC-MRCI
   Bernardo de Souza      : ESD, SOC TD-DFT
   Georgi Stoychev        : AutoAux, RI-MP2 NMR
   Willem Van den Heuvel  : Paramagnetic NMR
   Boris Wezisla          : Elementary symmetry handling
   Frank Wennmohs         : Technical directorship


 We gratefully acknowledge several colleagues who have allowed us to
 interface, adapt or use parts of their codes:
   Stefan Grimme, W. Hujo, H. Kruse,             : VdW corrections, initial TS optimization,
                  C. Bannwarth                     DFT functionals, gCP, sTDA/sTD-DF
   Ed Valeev                                     : LibInt (2-el integral package), F12 methods
   Garnet Chan, S. Sharma, J. Yang, R. Olivares  : DMRG
   Ulf Ekstrom                                   : XCFun DFT Library
   Mihaly Kallay                                 : mrcc  (arbitrary order and MRCC methods)
   Andreas Klamt, Michael Diedenhofen            : otool_cosmo (COSMO solvation model)
   Jiri Pittner, Ondrej Demel                    : Mk-CCSD
   Frank Weinhold                                : gennbo (NPA and NBO analysis)
   Christopher J. Cramer and Donald G. Truhlar   : smd solvation model
   Lars Goerigk                                  : TD-DFT with DH, B97 family of functionals
   V. Asgeirsson, H. Jonsson                     : NEB implementation
   FAccTs GmbH                                   : IRC, NEB, NEB-TS, Multilevel


 Your calculation uses the libint2 library for the computation of 2-el integrals
 For citations please refer to: http://libint.valeyev.net

 This ORCA versions uses:
   CBLAS   interface :  Fast vector & matrix operations
   LAPACKE interface :  Fast linear algebra routines
   SCALAPACK package :  Parallel linear algebra routines


Your calculation utilizes the atom-pairwise dispersion correction
with the Becke-Johnson damping scheme (D3BJ)
Cite in your paper:
S.Grimme, S.Ehrlich, L.Goerigk, J Comput Chem, (2011), 32, 1456–1465 
S.Grimme, J.Antony, S.Ehrlich and H.Krieg, J.Chem.Phys., 132, (2010), 154104 
   

----- Orbital basis set information -----
Your calculation utilizes the basis: def2-SVP
   F. Weigend and R. Ahlrichs, Phys. Chem. Chem. Phys. 7, 3297 (2005).

----- AuxJ basis set information -----
Your calculation utilizes the auxiliary basis: def2/J
   F. Weigend, Phys. Chem. Chem. Phys. 8, 1057 (2006).

================================================================================
                                        WARNINGS
                       Please study these warnings very carefully!
================================================================================


WARNING: Geometry Optimization
  ===> : Switching off AutoStart
         For restart on a previous wavefunction, please use MOREAD

INFO   : the flag for use of LIBINT has been found!

================================================================================
                                       INPUT FILE
================================================================================
NAME = test_ts_reopt_optts_backwards_displacement_orca.inp
|  1> ! Opt PBE0 RIJCOSX D3BJ def2-SVP def2/J
|  2> %geom Constraints
|  3> { B 0 1 3.148728575760223 C }
|  4> { B 1 2 1.117602340825215 C }
|  5>     end
|  6> end
|  7> %geom MaxIter 100 end
|  8> %output 
|  9> xyzfile=True 
| 10> end 
| 11> %scf 
| 12> maxiter 250 
| 13> end
| 14> % maxcore 4000
| 15> *xyz -1 1
| 16> F   -2.45659100  -0.07434200   0.09312300 
| 17> C    0.68935200   0.00663400  -0.01164900 
| 18> Cl   1.79430400   0.11913900  -0.13598200 
| 19> H   -0.22211800  -0.77252300   0.76898800 
| 20> H   -0.56795000  -0.32492000  -0.86744900 
| 21> H   -0.54765400   0.87246700   0.34413800 
| 22> *
| 23> 
| 24>                          ****END OF INPUT****
================================================================================

                       *****************************
                       * Geometry Optimization Run *
                       *****************************

Geometry optimization settings:
Update method            Update   .... BFGS
Choice of coordinates    CoordSys .... Z-matrix Internals
Initial Hessian          InHess   .... Almoef's Model

Convergence Tolerances:
Energy Change            TolE     ....  5.0000e-06 Eh
Max. Gradient            TolMAXG  ....  3.0000e-04 Eh/bohr
RMS Gradient             TolRMSG  ....  1.0000e-04 Eh/bohr
Max. Displacement        TolMAXD  ....  4.0000e-03 bohr
RMS Displacement         TolRMSD  ....  2.0000e-03 bohr

------------------------------------------------------------------------------
                        ORCA OPTIMIZATION COORDINATE SETUP
------------------------------------------------------------------------------

The optimization will be done in new redundant internal coordinates
Making redundant internal coordinates   ...  (new redundants) done
Evaluating the initial hessian          ...  (Almloef) done
Evaluating the coordinates              ...  done
Calculating the B-matrix                .... done
Calculating the G-matrix                .... done
Diagonalizing the G-matrix              .... done
Imposing constraints:
 Iter   0:  RMS(Cart)=    0.0000000003 RMS(Int)=    0.0000000004
CONVERGED
The first mode is                       ....   40
The number of degrees of freedom        ....   12
Storing new coordinates                 .... done

    -----------------------------------------------------------------
                    Redundant Internal Coordinates


    -----------------------------------------------------------------
         Definition                    Initial Value    Approx d2E/dq
    -----------------------------------------------------------------
      1. B(C   1,F   0)                  3.1487         0.000813 C 
      2. B(Cl  2,C   1)                  1.1176         3.813534 C 
      3. B(H   3,C   1)                  1.4308         0.102958   
      4. B(H   4,C   1)                  1.5566         0.064853   
      5. B(H   4,F   0)                  2.1336         0.006480   
      6. B(H   4,H   3)                  1.7314         0.006533   
      7. B(H   5,C   1)                  1.5513         0.066145   
      8. B(H   5,H   3)                  1.7299         0.006571   
      9. B(H   5,H   4)                  1.7036         0.007238   
     10. A(H   4,C   1,H   5)           66.4780         0.182311   
     11. A(H   3,C   1,H   5)           70.7818         0.192601   
     12. A(Cl  2,C   1,H   3)          138.1873         0.406178   
     13. A(Cl  2,C   1,H   4)          139.3619         0.374673   
     14. A(H   3,C   1,H   4)           70.6970         0.192139   
     15. A(Cl  2,C   1,H   5)          139.2635         0.375952   
     16. A(C   1,H   3,H   4)           58.0494         0.138055   
     17. A(C   1,H   3,H   5)           57.8630         0.138119   
     18. A(H   4,H   3,H   5)           58.9666         0.110041   
     19. A(C   1,H   4,H   5)           56.6099         0.134219   
     20. A(F   0,H   4,C   1)          116.2591         0.143077   
     21. A(F   0,H   4,H   3)           77.3885         0.114720   
     22. A(C   1,H   4,H   3)           51.2536         0.133182   
     23. A(H   3,H   4,H   5)           60.4710         0.110507   
     24. A(F   0,H   4,H   5)           66.9092         0.115323   
     25. A(C   1,H   5,H   4)           56.9121         0.134421   
     26. A(H   3,H   5,H   4)           60.5625         0.110535   
     27. A(C   1,H   5,H   3)           51.3552         0.133438   
     28. D(H   5,H   3,C   1,Cl  2)    144.4781         0.009094   
     29. D(H   5,H   3,C   1,H   4)    -70.9899         0.009094   
     30. D(H   4,H   3,C   1,Cl  2)   -144.5320         0.009094   
     31. D(H   4,H   3,C   1,H   5)     70.9899         0.009094   
     32. D(C   1,H   4,H   3,H   5)     69.1202         0.001985   
     33. D(F   0,H   4,H   3,C   1)   -139.5387         0.001985   
     34. D(F   0,H   4,C   1,H   3)     44.9226         0.004444   
     35. D(H   3,H   4,C   1,H   5)    -76.8250         0.004444   
     36. D(F   0,H   4,C   1,Cl  2)   -171.5178         0.004444   
     37. D(F   0,H   4,H   3,H   5)    -70.4185         0.001985   
     38. D(H   5,H   4,C   1,Cl  2)   -139.6153         0.004444   
     39. D(F   0,H   4,C   1,H   5)    -31.9025         0.004444   
     40. D(H   5,H   4,H   3,C   1)    -69.1202         0.001985   
     41. D(H   3,H   4,C   1,Cl  2)    143.5597         0.004444   
     42. D(H   5,H   4,C   1,H   3)     76.8250         0.004444   
     43. D(H   3,H   5,C   1,Cl  2)   -143.5884         0.004373   
     44. D(H   3,H   5,C   1,H   4)     76.6991         0.004373   
     45. D(C   1,H   5,H   4,H   3)     60.7811         0.002101   
     46. D(H   4,H   5,C   1,H   3)    -76.6991         0.004373   
     47. D(C   1,H   5,H   3,H   4)    -69.4285         0.001949   
     48. D(H   4,H   5,H   3,C   1)     69.4285         0.001949   
     49. D(H   4,H   5,C   1,Cl  2)    139.7125         0.004373   
     50. D(C   1,H   5,H   4,F   0)    148.9882         0.002101   
     51. D(H   3,H   5,H   4,F   0)     88.2071         0.002101   
     52. D(H   3,H   5,H   4,C   1)    -60.7811         0.002101   
    -----------------------------------------------------------------

Number of atoms                         .... 6
Number of degrees of freedom            .... 52

         *************************************************************
         *                GEOMETRY OPTIMIZATION CYCLE   1            *
         *************************************************************
---------------------------------
CARTESIAN COORDINATES (ANGSTROEM)
---------------------------------
  F     -2.456591   -0.074342    0.093123
  C      0.689352    0.006634   -0.011649
  Cl     1.794304    0.119139   -0.135982
  H     -0.222118   -0.772523    0.768988
  H     -0.567950   -0.324920   -0.867449
  H     -0.547654    0.872467    0.344138

----------------------------
CARTESIAN COORDINATES (A.U.)
----------------------------
  NO LB      ZA    FRAG     MASS         X           Y           Z
   0 F     9.0000    0    18.998   -4.642284   -0.140486    0.175977
   1 C     6.0000    0    12.011    1.302686    0.012536   -0.022013
   2 Cl   17.0000    0    35.453    3.390743    0.225140   -0.256969
   3 H     1.0000    0     1.008   -0.419742   -1.459857    1.453177
   4 H     1.0000    0     1.008   -1.073270   -0.614010   -1.639241
   5 H     1.0000    0     1.008   -1.034916    1.648724    0.650327

--------------------------------
INTERNAL COORDINATES (ANGSTROEM)
--------------------------------
 F      0   0   0     0.000000000000     0.00000000     0.00000000
 C      1   0   0     3.148728575760     0.00000000     0.00000000
 Cl     2   1   0     1.117602340825   173.77131921     0.00000000
 H      2   1   3     1.430823999421    48.03941211   181.36566581
 H      2   1   4     1.556640618165    37.42290021   116.33092634
 H      2   1   5     1.551268841076    37.81562089   127.78471522

---------------------------
INTERNAL COORDINATES (A.U.)
---------------------------
 F      0   0   0     0.000000000000     0.00000000     0.00000000
 C      1   0   0     5.950234678239     0.00000000     0.00000000
 Cl     2   1   0     2.111962350789   173.77131921     0.00000000
 H      2   1   3     2.703865504747    48.03941211   181.36566581
 H      2   1   4     2.941624457269    37.42290021   116.33092634
 H      2   1   5     2.931473269719    37.81562089   127.78471522

---------------------
BASIS SET INFORMATION
---------------------
There are 4 groups of distinct atoms

 Group   1 Type F   : 7s4p1d contracted to 3s2p1d pattern {511/31/1}
 Group   2 Type C   : 7s4p1d contracted to 3s2p1d pattern {511/31/1}
 Group   3 Type Cl  : 10s7p1d contracted to 4s3p1d pattern {5311/511/1}
 Group   4 Type H   : 4s1p contracted to 2s1p pattern {31/1}

Atom   0F    basis set group =>   1
Atom   1C    basis set group =>   2
Atom   2Cl   basis set group =>   3
Atom   3H    basis set group =>   4
Atom   4H    basis set group =>   4
Atom   5H    basis set group =>   4
-------------------------------
AUXILIARY BASIS SET INFORMATION
-------------------------------
There are 4 groups of distinct atoms

 Group   1 Type F   : 12s5p4d2f1g contracted to 6s4p3d1f1g pattern {711111/2111/211/2/1}
 Group   2 Type C   : 12s5p4d2f1g contracted to 6s4p3d1f1g pattern {711111/2111/211/2/1}
 Group   3 Type Cl  : 14s5p5d2f1g contracted to 8s4p3d1f1g pattern {71111111/2111/311/2/1}
 Group   4 Type H   : 5s2p1d contracted to 3s1p1d pattern {311/2/1}

Atom   0F    basis set group =>   1
Atom   1C    basis set group =>   2
Atom   2Cl   basis set group =>   3
Atom   3H    basis set group =>   4
Atom   4H    basis set group =>   4
Atom   5H    basis set group =>   4
------------------------------------------------------------------------------
                           ORCA GTO INTEGRAL CALCULATION
                           -- RI-GTO INTEGRALS CHOSEN --
------------------------------------------------------------------------------

                         BASIS SET STATISTICS AND STARTUP INFO

Gaussian basis set:
 # of primitive gaussian shells          ...   57
 # of primitive gaussian functions       ...  105
 # of contracted shells                  ...   29
 # of contracted basis functions         ...   61
 Highest angular momentum                ...    2
 Maximum contraction depth               ...    5
Auxiliary gaussian basis set:
 # of primitive gaussian shells          ...   99
 # of primitive gaussian functions       ...  265
 # of contracted shells                  ...   62
 # of contracted aux-basis functions     ...  182
 Highest angular momentum                ...    4
 Maximum contraction depth               ...    7
Ratio of auxiliary to basis functions    ...  2.98
Integral package used                  ... LIBINT
 One Electron integrals                  ... done
 Ordering auxiliary basis shells         ... done
 Integral threshhold             Thresh  ...  2.500e-11
 Primitive cut-off               TCut    ...  2.500e-12
 Pre-screening matrix                    ... done
 Shell pair data                         ... 
 Ordering of the shell pairs             ... done (   0.000 sec) 415 of 435 pairs
 Determination of significant pairs      ... done (   0.000 sec)
 Creation of shell pair data             ... done (   0.000 sec)
 Storage of shell pair data              ... done (   0.000 sec)
 Shell pair data done in (   0.000 sec)
 Computing two index integrals           ... done
 Cholesky decomposition of the V-matrix  ... done


Timings:
 Total evaluation time                   ...   0.287 sec (  0.005 min)
 One electron matrix time                ...   0.010 sec (  0.000 min) =  3.4%
 Schwartz matrix evaluation time         ...   0.154 sec (  0.003 min) = 53.7%
 Two index repulsion integral time       ...   0.001 sec (  0.000 min) =  0.3%
 Cholesky decomposition of V             ...   0.084 sec (  0.001 min) = 29.4%
 Three index repulsion integral time     ...   0.000 sec (  0.000 min) =  0.0%

-------------------------------------------------------------------------------
                                 ORCA SCF
-------------------------------------------------------------------------------

------------
SCF SETTINGS
------------
Hamiltonian:
 Density Functional     Method          .... DFT(GTOs)
 Exchange Functional    Exchange        .... PBE
   PBE kappa parameter   XKappa         ....  0.804000
   PBE mue parameter    XMuePBE         ....  0.219520
 Correlation Functional Correlation     .... PBE
   PBE beta parameter  CBetaPBE         ....  0.066725
 LDA part of GGA corr.  LDAOpt          .... PW91-LDA
 Gradients option       PostSCFGGA      .... off
 Hybrid DFT is turned on
   Fraction HF Exchange ScalHFX         ....  0.250000
   Scaling of DF-GGA-X  ScalDFX         ....  0.750000
   Scaling of DF-GGA-C  ScalDFC         ....  1.000000
   Scaling of DF-LDA-C  ScalLDAC        ....  1.000000
   Perturbative correction              ....  0.000000
   Density functional embedding theory  .... OFF
   NL short-range parameter             ....  6.900000
 RI-approximation to the Coulomb term is turned on
   Number of auxiliary basis functions  .... 182
   RIJ-COSX (HFX calculated with COS-X)).... on


General Settings:
 Integral files         IntName         .... test_ts_reopt_optts_backwards_displacement_orca
 Hartree-Fock type      HFTyp           .... RHF
 Total Charge           Charge          ....   -1
 Multiplicity           Mult            ....    1
 Number of Electrons    NEL             ....   36
 Basis Dimension        Dim             ....   61
 Nuclear Repulsion      ENuc            ....    100.9490535355 Eh

Convergence Acceleration:
 DIIS                   CNVDIIS         .... on
   Start iteration      DIISMaxIt       ....    12
   Startup error        DIISStart       ....  0.200000
   # of expansion vecs  DIISMaxEq       ....     5
   Bias factor          DIISBfac        ....   1.050
   Max. coefficient     DIISMaxC        ....  10.000
 Newton-Raphson         CNVNR           .... off
 SOSCF                  CNVSOSCF        .... on
   Start iteration      SOSCFMaxIt      ....   150
   Startup grad/error   SOSCFStart      ....  0.003300
 Level Shifting         CNVShift        .... on
   Level shift para.    LevelShift      ....    0.2500
   Turn off err/grad.   ShiftErr        ....    0.0010
 Zerner damping         CNVZerner       .... off
 Static damping         CNVDamp         .... on
   Fraction old density DampFac         ....    0.7000
   Max. Damping (<1)    DampMax         ....    0.9800
   Min. Damping (>=0)   DampMin         ....    0.0000
   Turn off err/grad.   DampErr         ....    0.1000
 Fernandez-Rico         CNVRico         .... off

SCF Procedure:
 Maximum # iterations   MaxIter         ....   250
 SCF integral mode      SCFMode         .... Direct
   Integral package                     .... LIBINT
 Reset frequency        DirectResetFreq ....    20
 Integral Threshold     Thresh          ....  2.500e-11 Eh
 Primitive CutOff       TCut            ....  2.500e-12 Eh

Convergence Tolerance:
 Convergence Check Mode ConvCheckMode   .... Total+1el-Energy
 Convergence forced     ConvForced      .... 0
 Energy Change          TolE            ....  1.000e-08 Eh
 1-El. energy change                    ....  1.000e-05 Eh
 Orbital Gradient       TolG            ....  1.000e-05
 Orbital Rotation angle TolX            ....  1.000e-05
 DIIS Error             TolErr          ....  5.000e-07


Diagonalization of the overlap matrix:
Smallest eigenvalue                        ... 2.649e-03
Time for diagonalization                   ...    0.161 sec
Threshold for overlap eigenvalues          ... 1.000e-08
Number of eigenvalues below threshold      ... 0
Time for construction of square roots      ...    0.000 sec
Total time needed                          ...    0.161 sec

-------------------
DFT GRID GENERATION
-------------------

General Integration Accuracy     IntAcc      ...  4.340
Radial Grid Type                 RadialGrid  ... Gauss-Chebyshev
Angular Grid (max. acc.)         AngularGrid ... Lebedev-110
Angular grid pruning method      GridPruning ... 3 (G Style)
Weight generation scheme         WeightScheme... Becke
Basis function cutoff            BFCut       ...    1.0000e-11
Integration weight cutoff        WCut        ...    1.0000e-14
Grids for H and He will be reduced by one unit

# of grid points (after initial pruning)     ...   7622 (   0.0 sec)
# of grid points (after weights+screening)   ...   7434 (   0.0 sec)
nearest neighbour list constructed           ...    0.0 sec
Grid point re-assignment to atoms done       ...    0.0 sec
Grid point division into batches done        ...    0.0 sec
Reduced shell lists constructed in    0.1 sec

Total number of grid points                  ...     7434
Total number of batches                      ...      118
Average number of points per batch           ...       63
Average number of grid points per atom       ...     1239
Average number of shells per batch           ...    22.20 (76.56%)
Average number of basis functions per batch  ...    46.81 (76.73%)
Average number of large shells per batch     ...    19.41 (87.43%)
Average number of large basis fcns per batch ...    39.92 (85.28%)
Maximum spatial batch extension              ...  22.08, 25.19, 25.60 au
Average spatial batch extension              ...   4.62,  5.39,  5.16 au

Time for grid setup =    0.070 sec

------------------------------
INITIAL GUESS: MODEL POTENTIAL
------------------------------
Loading Hartree-Fock densities                     ... done
Calculating cut-offs                               ... done
Setting up the integral package                    ... done
Initializing the effective Hamiltonian             ... done
Starting the Coulomb interaction                   ... done (   0.0 sec)
Reading the grid                                   ... done
Mapping shells                                     ... done
Starting the XC term evaluation                    ... done (   0.0 sec)
  promolecular density results
     # of electrons  =     34.997504521
     EX              =    -43.446939010
     EC              =     -1.255006021
     EX+EC           =    -44.701945030
Transforming the Hamiltonian                       ... done (   0.0 sec)
Diagonalizing the Hamiltonian                      ... done (   0.0 sec)
Back transforming the eigenvectors                 ... done (   0.0 sec)
Now organizing SCF variables                       ... done
                      ------------------
                      INITIAL GUESS DONE (   0.2 sec)
                      ------------------
--------------------
COSX GRID GENERATION
--------------------

General Integration Accuracy     IntAcc      ...  3.340
Radial Grid Type                 RadialGrid  ... Gauss-Chebyshev
Angular Grid (max. acc.)         AngularGrid ... Lebedev-50
Angular grid pruning method      GridPruning ... 3 (G Style)
Weight generation scheme         WeightScheme... Becke
Basis function cutoff            BFCut       ...    1.0000e-11
Integration weight cutoff        WCut        ...    1.0000e-14
Grids for H and He will be reduced by one unit

# of grid points (after initial pruning)     ...   2826 (   0.0 sec)
# of grid points (after weights+screening)   ...   2768 (   0.0 sec)
nearest neighbour list constructed           ...    0.0 sec
Grid point re-assignment to atoms done       ...    0.0 sec
Grid point division into batches done        ...    0.0 sec
Reduced shell lists constructed in    0.0 sec

Total number of grid points                  ...     2768
Total number of batches                      ...       46
Average number of points per batch           ...       60
Average number of grid points per atom       ...      461
Average number of shells per batch           ...    23.62 (81.44%)
Average number of basis functions per batch  ...    50.51 (82.80%)
Average number of large shells per batch     ...    20.57 (87.12%)
Average number of large basis fcns per batch ...    42.79 (84.71%)
Maximum spatial batch extension              ...  18.61, 20.83, 20.72 au
Average spatial batch extension              ...   5.64,  7.42,  6.75 au

Overlap Fitting                  UseSFitting ... on
Constructing numerical overlap ... done (      0.0 sec)
Inverting numerical overlap    ... done (      0.0 sec)
Obtaining analytic overlap     ... done (      0.0 sec)
Final contraction and storage  ... done (      0.0 sec)


General Integration Accuracy     IntAcc      ...  3.670
Radial Grid Type                 RadialGrid  ... Gauss-Chebyshev
Angular Grid (max. acc.)         AngularGrid ... Lebedev-50
Angular grid pruning method      GridPruning ... 3 (G Style)
Weight generation scheme         WeightScheme... Becke
Basis function cutoff            BFCut       ...    1.0000e-11
Integration weight cutoff        WCut        ...    1.0000e-14
Grids for H and He will be reduced by one unit

# of grid points (after initial pruning)     ...   3566 (   0.0 sec)
# of grid points (after weights+screening)   ...   3487 (   0.0 sec)
nearest neighbour list constructed           ...    0.0 sec
Grid point re-assignment to atoms done       ...    0.0 sec
Grid point division into batches done        ...    0.0 sec
Reduced shell lists constructed in    0.0 sec

Total number of grid points                  ...     3487
Total number of batches                      ...       57
Average number of points per batch           ...       61
Average number of grid points per atom       ...      581
Average number of shells per batch           ...    23.53 (81.15%)
Average number of basis functions per batch  ...    49.98 (81.94%)
Average number of large shells per batch     ...    20.52 (87.18%)
Average number of large basis fcns per batch ...    42.66 (85.34%)
Maximum spatial batch extension              ...  19.86, 22.67, 22.67 au
Average spatial batch extension              ...   5.12,  6.44,  6.27 au

Overlap Fitting                  UseSFitting ... on
Constructing numerical overlap ... done (      0.0 sec)
Inverting numerical overlap    ... done (      0.0 sec)
Obtaining analytic overlap     ... done (      0.0 sec)
Final contraction and storage  ... done (      0.0 sec)


General Integration Accuracy     IntAcc      ...  4.010
Radial Grid Type                 RadialGrid  ... Gauss-Chebyshev
Angular Grid (max. acc.)         AngularGrid ... Lebedev-110
Angular grid pruning method      GridPruning ... 3 (G Style)
Weight generation scheme         WeightScheme... Becke
Basis function cutoff            BFCut       ...    1.0000e-11
Integration weight cutoff        WCut        ...    1.0000e-14
Grids for H and He will be reduced by one unit

# of grid points (after initial pruning)     ...   6574 (   0.0 sec)
# of grid points (after weights+screening)   ...   6411 (   0.0 sec)
nearest neighbour list constructed           ...    0.0 sec
Grid point re-assignment to atoms done       ...    0.0 sec
Grid point division into batches done        ...    0.0 sec
Reduced shell lists constructed in    0.0 sec

Total number of grid points                  ...     6411
Total number of batches                      ...      102
Average number of points per batch           ...       62
Average number of grid points per atom       ...     1068
Average number of shells per batch           ...    22.55 (77.77%)
Average number of basis functions per batch  ...    47.37 (77.65%)
Average number of large shells per batch     ...    19.59 (86.87%)
Average number of large basis fcns per batch ...    40.41 (85.30%)
Maximum spatial batch extension              ...  18.98, 24.28, 24.28 au
Average spatial batch extension              ...   4.74,  5.34,  5.34 au

Overlap Fitting                  UseSFitting ... on
Constructing numerical overlap ... done (      0.0 sec)
Inverting numerical overlap    ... done (      0.0 sec)
Obtaining analytic overlap     ... done (      0.0 sec)
Final contraction and storage  ... done (      0.0 sec)

Time for X-Grid setup             =    0.145 sec
--------------
SCF ITERATIONS
--------------
ITER       Energy         Delta-E        Max-DP      RMS-DP      [F,P]     Damp
               ***  Starting incremental Fock matrix formation  ***
  0   -598.3693116863   0.000000000000 0.27488587  0.00965657  0.3397713 0.7000
  1   -598.4818323125  -0.112520626219 0.21287224  0.00721920  0.1296076 0.7000
                               ***Turning on DIIS***
  2   -598.5251977801  -0.043365467558 0.25471034  0.01110539  0.0484299 0.0000
  3   -598.5917972193  -0.066599439232 0.16612876  0.00506779  0.0782003 0.0000
  4   -598.6079780771  -0.016180857743 0.02423577  0.00134864  0.0156909 0.0000
  5   -598.6092064954  -0.001228418305 0.01077630  0.00057110  0.0077691 0.0000
                      *** Initiating the SOSCF procedure ***
                           *** Shutting down DIIS ***
                      *** Re-Reading the Fockian *** 
                      *** Removing any level shift *** 
ITER      Energy       Delta-E        Grad      Rot      Max-DP    RMS-DP
  6   -598.60934919  -0.0001426930  0.000681  0.000681  0.001791  0.000150
               *** Restarting incremental Fock matrix formation ***
  7   -598.60937234  -0.0000231554  0.000629  0.002899  0.004085  0.000210
  8   -598.60937666  -0.0000043130  0.000512  0.001314  0.004086  0.000143
  9   -598.60937888  -0.0000022222  0.000312  0.000579  0.001948  0.000069
 10   -598.60937980  -0.0000009193  0.000176  0.000442  0.000449  0.000040
 11   -598.60938005  -0.0000002527  0.000122  0.000274  0.000330  0.000025
 12   -598.60938027  -0.0000002230  0.000049  0.000063  0.000300  0.000010
 13   -598.60938028  -0.0000000029  0.000033  0.000039  0.000173  0.000006
                  ***Gradient check signals convergence***
              ***Rediagonalizing the Fockian in SOSCF/NRSCF***

               *****************************************************
               *                     SUCCESS                       *
               *           SCF CONVERGED AFTER  14 CYCLES          *
               *****************************************************

Setting up the final grid:

General Integration Accuracy     IntAcc      ...  4.670
Radial Grid Type                 RadialGrid  ... Gauss-Chebyshev
Angular Grid (max. acc.)         AngularGrid ... Lebedev-302
Angular grid pruning method      GridPruning ... 3 (G Style)
Weight generation scheme         WeightScheme... Becke
Basis function cutoff            BFCut       ...    1.0000e-11
Integration weight cutoff        WCut        ...    1.0000e-14
Grids for H and He will be reduced by one unit

# of grid points (after initial pruning)     ...  29404 (   0.0 sec)
# of grid points (after weights+screening)   ...  28556 (   0.0 sec)
nearest neighbour list constructed           ...    0.0 sec
Grid point re-assignment to atoms done       ...    0.0 sec
Grid point division into batches done        ...    0.1 sec
Reduced shell lists constructed in    0.2 sec

Total number of grid points                  ...    28556
Total number of batches                      ...      450
Average number of points per batch           ...       63
Average number of grid points per atom       ...     4759
Average number of shells per batch           ...    20.37 (70.25%)
Average number of basis functions per batch  ...    42.77 (70.11%)
Average number of large shells per batch     ...    17.33 (85.07%)
Average number of large basis fcns per batch ...    35.47 (82.94%)
Maximum spatial batch extension              ...  20.00, 20.84, 21.17 au
Average spatial batch extension              ...   3.03,  3.30,  3.32 au

Final grid set up in    0.2 sec
Final integration                            ... done (   0.1 sec)
Change in XC energy                          ...    -0.000764982
Integrated number of electrons               ...    35.999990610
Previous integrated no of electrons          ...    36.000125734
Old exchange energy                            =    -11.034204104 Eh
New exchange energy                            =    -11.033792277 Eh
Exchange energy change after final integration =      0.000411827 Eh
Total energy after final integration           =   -598.609733448 Eh
Final COS-X integration done in                =     0.433 sec

----------------
TOTAL SCF ENERGY
----------------

Total Energy       :         -598.60973345 Eh          -16288.99896 eV

Components:
Nuclear Repulsion  :          100.94905354 Eh            2746.96340 eV
Electronic Energy  :         -699.55878698 Eh          -19035.96236 eV
One Electron Energy:        -1035.01750275 Eh          -28164.25809 eV
Two Electron Energy:          335.45871577 Eh            9128.29573 eV

Virial components:
Potential Energy   :        -1198.55406208 Eh          -32614.31411 eV
Kinetic Energy     :          599.94432863 Eh           16325.31514 eV
Virial Ratio       :            1.99777547


DFT components:
N(Alpha)           :       17.999995304837 electrons
N(Beta)            :       17.999995304837 electrons
N(Total)           :       35.999990609674 electrons
E(X)               :      -33.021512381188 Eh       
E(C)               :       -1.307836755814 Eh       
E(XC)              :      -34.329349137001 Eh       
DFET-embed. en.    :        0.000000000000 Eh       

---------------
SCF CONVERGENCE
---------------

  Last Energy change         ...   -1.5525e-08  Tolerance :   1.0000e-08
  Last MAX-Density change    ...    4.8850e-15  Tolerance :   1.0000e-07
  Last RMS-Density change    ...    1.1420e-16  Tolerance :   5.0000e-09
  Last Orbital Gradient      ...    2.2656e-06  Tolerance :   1.0000e-05
  Last Orbital Rotation      ...    7.3728e-06  Tolerance :   1.0000e-05

             **** THE GBW FILE WAS UPDATED (test_ts_reopt_optts_backwards_displacement_orca.gbw) ****
             **** DENSITY FILE WAS UPDATED (test_ts_reopt_optts_backwards_displacement_orca.scfp.tmp) ****
             **** ENERGY FILE WAS UPDATED (test_ts_reopt_optts_backwards_displacement_orca.en.tmp) ****
----------------
ORBITAL ENERGIES
----------------

  NO   OCC          E(Eh)            E(eV) 
   0   2.0000    -101.528279     -2762.7249 
   1   2.0000     -24.321242      -661.8146 
   2   2.0000     -10.099391      -274.8184 
   3   2.0000      -9.418289      -256.2847 
   4   2.0000      -7.160195      -194.8388 
   5   2.0000      -7.144135      -194.4018 
   6   2.0000      -7.144024      -194.3988 
   7   2.0000      -0.935864       -25.4662 
   8   2.0000      -0.699441       -19.0327 
   9   2.0000      -0.425574       -11.5805 
  10   2.0000      -0.358624        -9.7586 
  11   2.0000      -0.355157        -9.6643 
  12   2.0000      -0.295539        -8.0420 
  13   2.0000      -0.028139        -0.7657 
  14   2.0000      -0.017987        -0.4895 
  15   2.0000       0.005735         0.1561 
  16   2.0000       0.017436         0.4745 
  17   2.0000       0.023500         0.6395 
  18   0.0000       0.240437         6.5426 
  19   0.0000       0.245725         6.6865 
  20   0.0000       0.254010         6.9120 
  21   0.0000       0.368072        10.0157 
  22   0.0000       0.539852        14.6901 
  23   0.0000       0.675444        18.3798 
  24   0.0000       0.681574        18.5466 
  25   0.0000       0.692186        18.8353 
  26   0.0000       0.704120        19.1601 
  27   0.0000       0.713627        19.4188 
  28   0.0000       0.766154        20.8481 
  29   0.0000       0.854304        23.2468 
  30   0.0000       0.854547        23.2534 
  31   0.0000       1.034611        28.1532 
  32   0.0000       1.035344        28.1731 
  33   0.0000       1.160384        31.5757 
  34   0.0000       1.178466        32.0677 
  35   0.0000       1.258051        34.2333 
  36   0.0000       1.331554        36.2334 
  37   0.0000       1.447673        39.3932 
  38   0.0000       1.471271        40.0353 
  39   0.0000       1.505728        40.9729 
  40   0.0000       1.596385        43.4398 
  41   0.0000       1.615659        43.9643 
  42   0.0000       1.760271        47.8994 
  43   0.0000       1.778124        48.3852 
  44   0.0000       1.782980        48.5174 
  45   0.0000       1.852886        50.4196 
  46   0.0000       1.867366        50.8136 
  47   0.0000       2.075603        56.4800 
  48   0.0000       2.082058        56.6557 
  49   0.0000       2.125461        57.8367 
  50   0.0000       2.192420        59.6588 
  51   0.0000       2.193959        59.7006 
  52   0.0000       2.401074        65.3365 
  53   0.0000       2.800624        76.2089 
  54   0.0000       2.901645        78.9578 
  55   0.0000       3.260462        88.7217 
  56   0.0000       3.520951        95.8099 
  57   0.0000       3.521763        95.8320 
  58   0.0000       3.525765        95.9409 
  59   0.0000       3.527721        95.9942 
  60   0.0000       3.531467        96.0961 

                    ********************************
                    * MULLIKEN POPULATION ANALYSIS *
                    ********************************

-----------------------
MULLIKEN ATOMIC CHARGES
-----------------------
   0 F :   -0.691214
   1 C :   -0.832737
   2 Cl:    0.441377
   3 H :    0.022621
   4 H :    0.030550
   5 H :    0.029403
Sum of atomic charges:   -1.0000000

--------------------------------
MULLIKEN REDUCED ORBITAL CHARGES
--------------------------------
  0 F s       :     3.985035  s :     3.985035
      pz      :     1.938886  p :     5.706048
      px      :     1.826356
      py      :     1.940807
      dz2     :     0.000013  d :     0.000130
      dxz     :     0.000044
      dyz     :     0.000001
      dx2y2   :     0.000030
      dxy     :     0.000043
  1 C s       :     3.408649  s :     3.408649
      pz      :     1.196832  p :     3.337263
      px      :     0.945724
      py      :     1.194707
      dz2     :     0.005161  d :     0.086825
      dxz     :     0.032817
      dyz     :     0.002230
      dx2y2   :     0.013697
      dxy     :     0.032921
  2 Cls       :     5.624948  s :     5.624948
      pz      :     3.749905  p :    10.736710
      px      :     3.236189
      py      :     3.750615
      dz2     :     0.009070  d :     0.196965
      dxz     :     0.081137
      dyz     :     0.002460
      dx2y2   :     0.023288
      dxy     :     0.081010
  3 H s       :     0.958598  s :     0.958598
      pz      :     0.005531  p :     0.018781
      px      :     0.007730
      py      :     0.005520
  4 H s       :     0.951322  s :     0.951322
      pz      :     0.004203  p :     0.018128
      px      :     0.010639
      py      :     0.003285
  5 H s       :     0.952474  s :     0.952474
      pz      :     0.003349  p :     0.018123
      px      :     0.010506
      py      :     0.004268


                     *******************************
                     * LOEWDIN POPULATION ANALYSIS *
                     *******************************

----------------------
LOEWDIN ATOMIC CHARGES
----------------------
   0 F :   -0.721202
   1 C :   -0.781125
   2 Cl:    0.560464
   3 H :   -0.026365
   4 H :   -0.015319
   5 H :   -0.016452

-------------------------------
LOEWDIN REDUCED ORBITAL CHARGES
-------------------------------
  0 F s       :     3.979451  s :     3.979451
      pz      :     1.950938  p :     5.741512
      px      :     1.837946
      py      :     1.952627
      dz2     :     0.000015  d :     0.000239
      dxz     :     0.000097
      dyz     :     0.000003
      dx2y2   :     0.000029
      dxy     :     0.000095
  1 C s       :     2.975146  s :     2.975146
      pz      :     1.181330  p :     3.567236
      px      :     1.206657
      py      :     1.179249
      dz2     :     0.014615  d :     0.238743
      dxz     :     0.088760
      dyz     :     0.005670
      dx2y2   :     0.040718
      dxy     :     0.088981
  2 Cls       :     5.370468  s :     5.370468
      pz      :     3.660772  p :    10.769517
      px      :     3.448024
      py      :     3.660721
      dz2     :     0.017739  d :     0.299552
      dxz     :     0.115587
      dyz     :     0.003340
      dx2y2   :     0.047651
      dxy     :     0.115236
  3 H s       :     0.974033  s :     0.974033
      pz      :     0.016250  p :     0.052333
      px      :     0.019966
      py      :     0.016117
  4 H s       :     0.967390  s :     0.967390
      pz      :     0.009509  p :     0.047929
      px      :     0.028165
      py      :     0.010255
  5 H s       :     0.968477  s :     0.968477
      pz      :     0.010494  p :     0.047975
      px      :     0.027711
      py      :     0.009770


                      *****************************
                      * MAYER POPULATION ANALYSIS *
                      *****************************

  NA   - Mulliken gross atomic population
  ZA   - Total nuclear charge
  QA   - Mulliken gross atomic charge
  VA   - Mayer's total valence
  BVA  - Mayer's bonded valence
  FA   - Mayer's free valence

  ATOM       NA         ZA         QA         VA         BVA        FA
  0 F      9.6912     9.0000    -0.6912     0.5661     0.5661    -0.0000
  1 C      6.8327     6.0000    -0.8327     3.9069     3.9069    -0.0000
  2 Cl    16.5586    17.0000     0.4414     1.8277     1.8277    -0.0000
  3 H      0.9774     1.0000     0.0226     0.9853     0.9853    -0.0000
  4 H      0.9694     1.0000     0.0306     0.9973     0.9973     0.0000
  5 H      0.9706     1.0000     0.0294     0.9969     0.9969    -0.0000

  Mayer bond orders larger than 0.1
B(  0-F ,  1-C ) :   0.1391 B(  0-F ,  4-H ) :   0.1711 B(  0-F ,  5-H ) :   0.1671 
B(  1-C ,  2-Cl) :   1.4582 B(  1-C ,  3-H ) :   0.8235 B(  1-C ,  4-H ) :   0.7410 
B(  1-C ,  5-H ) :   0.7451 B(  2-Cl,  3-H ) :   0.1113 B(  2-Cl,  4-H ) :   0.1347 
B(  2-Cl,  5-H ) :   0.1343 

-------
TIMINGS
-------

Total SCF time: 0 days 0 hours 0 min 6 sec 

Total time                  ....       6.648 sec
Sum of individual times     ....       6.385 sec  ( 96.0%)

Fock matrix formation       ....       5.806 sec  ( 87.3%)
  Split-RI-J                ....       1.653 sec  ( 28.5% of F)
  Chain of spheres X        ....       3.446 sec  ( 59.4% of F)
  COS-X 1 center corr.      ....       0.000 sec  (  0.0% of F)
  XC integration            ....       0.688 sec  ( 11.9% of F)
    Basis function eval.    ....       0.282 sec  ( 41.0% of XC)
    Density eval.           ....       0.102 sec  ( 14.8% of XC)
    XC-Functional eval.     ....       0.134 sec  ( 19.5% of XC)
    XC-Potential eval.      ....       0.127 sec  ( 18.4% of XC)
Diagonalization             ....       0.004 sec  (  0.1%)
Density matrix formation    ....       0.001 sec  (  0.0%)
Population analysis         ....       0.001 sec  (  0.0%)
Initial guess               ....       0.159 sec  (  2.4%)
Orbital Transformation      ....       0.000 sec  (  0.0%)
Orbital Orthonormalization  ....       0.000 sec  (  0.0%)
DIIS solution               ....       0.001 sec  (  0.0%)
SOSCF solution              ....       0.003 sec  (  0.0%)
Grid generation             ....       0.411 sec  (  6.2%)


-------------------------------------------------------------------------------
                          DFT DISPERSION CORRECTION                            
                                                                               
                              DFTD3 V3.1  Rev 1                                
                          USING Becke-Johnson damping                          
-------------------------------------------------------------------------------
The PBE0 functional is recognized
Active option DFTDOPT                   ...         4   

molecular C6(AA) [au] = 635.771226 


            DFT-D V3
 parameters
 s6 scaling factor         :     1.0000 
 a1 scaling factor         :     0.4145 
 s8 scaling factor         :     1.2177 
 a2 scaling factor         :     4.8593 
 ad hoc parameters k1-k3   :    16.0000     1.3333    -4.0000 

 Edisp/kcal,au: -2.121110322371  -0.003380204099 
 E6   /kcal   :  -1.352145065 
 E8   /kcal   :  -0.768965257 
 % E8         :  36.252959092 

-------------------------   ----------------
Dispersion correction           -0.003380204
-------------------------   ----------------


-------------------------   --------------------
FINAL SINGLE POINT ENERGY      -598.613113652388
-------------------------   --------------------

------------------------------------------------------------------------------
                         ORCA SCF GRADIENT CALCULATION
------------------------------------------------------------------------------

Gradient of the Kohn-Sham DFT energy:
Kohn-Sham wavefunction type      ... RKS
Hartree-Fock exchange scaling    ...    0.250
Number of operators              ...    1
Number of atoms                  ...    6
Basis set dimensions             ...   61
Integral neglect threshold       ... 2.5e-11
Integral primitive cutoff        ... 2.5e-12

Nuclear repulsion gradient       ... done
One Electron Gradient            ... done
Pre-screening matrix             ... done
RI-J gradient                    ... done
COSX-gradient                    ... done
Exchange-correlation gradient    ... done
Dispersion correction            ... done

------------------
CARTESIAN GRADIENT
------------------

   1   F   :   -0.018347726   -0.002159983    0.002580562
   2   C   :    1.916974363    0.195108755   -0.215924177
   3   Cl  :   -1.729266104   -0.176628272    0.195069448
   4   H   :   -0.058427104   -0.023338920    0.023900849
   5   H   :   -0.053451411   -0.011653095   -0.017055663
   6   H   :   -0.053770705    0.017461720    0.012593137

Difference to translation invariance:
           :    0.0037113122   -0.0012097966    0.0011641572

Norm of the cartesian gradient     ...    2.6135432756
RMS gradient                       ...    0.6160180577
MAX gradient                       ...    1.9169743625

-------
TIMINGS
-------

Total SCF gradient time            ...        1.453 sec

One electron gradient       ....       0.008 sec  (  0.5%)
Prescreening matrices       ....       0.016 sec  (  1.1%)
RI-J Coulomb gradient       ....       0.122 sec  (  8.4%)
COSX gradient               ....       0.406 sec  ( 27.9%)
XC gradient                 ....       0.463 sec  ( 31.9%)
------------------------------------------------------------------------------
                         ORCA GEOMETRY RELAXATION STEP
------------------------------------------------------------------------------

Reading the OPT-File                    .... done
Getting information on internals        .... done
Copying old internal coords+grads       .... done
Making the new internal coordinates     .... (new redundants).... done
Validating the new internal coordinates .... (new redundants).... done
Calculating the B-matrix                .... done
Calculating the G,G- and P matrices     .... done
Transforming gradient to internals      .... done
Projecting the internal gradient        .... done
Number of atoms                         ....   6
Number of internal coordinates          ....  52
Current Energy                          ....  -598.613113652 Eh
Current gradient norm                   ....     2.613543276 Eh/bohr
Maximum allowed component of the step   ....  0.300
Current trust radius                    ....  0.300
Evaluating the initial hessian          ....  (Almloef) done
Projecting the Hessian                  .... done
Forming the augmented Hessian           .... done
Diagonalizing the augmented Hessian     .... done
Last element of RFO vector              ....  0.825575298
Lowest eigenvalues of augmented Hessian:
 -0.062491393  0.011144957  0.024577749  0.027307988  0.036941476
Length of the computed step             ....  0.683513632
Warning: the length of the step is outside the trust region - taking restricted step instead
The input lambda is                     ....    -0.062491
   iter:   1  x=   -0.111823  g=    7.646022 f(x)=     0.377191
   iter:   2  x=   -0.168943  g=    2.671451 f(x)=     0.152594
   iter:   3  x=   -0.213456  g=    1.156745 f(x)=     0.051490
   iter:   4  x=   -0.229929  g=    0.695248 f(x)=     0.011453
   iter:   5  x=   -0.231483  g=    0.588287 f(x)=     0.000914
   iter:   6  x=   -0.231495  g=    0.579378 f(x)=     0.000007
   iter:   7  x=   -0.231495  g=    0.579310 f(x)=     0.000000
   iter:   8  x=   -0.231495  g=    0.579310 f(x)=     0.000000
The output lambda is                    ....    -0.231495 (8 iterations)
The final length of the internal step   ....  0.300000000
Converting the step to cartesian space:
 Initial RMS(Int)=    0.0416025147
Transforming coordinates:
 Iter   0:  RMS(Cart)=    0.0493499854 RMS(Int)=    0.0419091946
 Iter   1:  RMS(Cart)=    0.0008350581 RMS(Int)=    0.0010155489
 Iter   2:  RMS(Cart)=    0.0000265580 RMS(Int)=    0.0000258053
 Iter   3:  RMS(Cart)=    0.0000004356 RMS(Int)=    0.0000004994
 Iter   4:  RMS(Cart)=    0.0000000109 RMS(Int)=    0.0000000120
Imposing constraints:
 Iter   0:  RMS(Cart)=    0.0000915361 RMS(Int)=    0.0001490950
 Iter   1:  RMS(Cart)=    0.0000308500 RMS(Int)=    0.0000503109
 Iter   2:  RMS(Cart)=    0.0000104101 RMS(Int)=    0.0000169770
 Iter   3:  RMS(Cart)=    0.0000035128 RMS(Int)=    0.0000057288
 Iter   4:  RMS(Cart)=    0.0000011854 RMS(Int)=    0.0000019331
 Iter   5:  RMS(Cart)=    0.0000004000 RMS(Int)=    0.0000006523
 Iter   6:  RMS(Cart)=    0.0000001350 RMS(Int)=    0.0000002201
 Iter   7:  RMS(Cart)=    0.0000000455 RMS(Int)=    0.0000000743
CONVERGED
done
Storing new coordinates                 .... done

                                .--------------------.
          ----------------------|Geometry convergence|-------------------------
          Item                value                   Tolerance       Converged
          ---------------------------------------------------------------------
          RMS gradient        0.0131637608            0.0001000000      NO
          MAX gradient        0.0447262221            0.0003000000      NO
          RMS step            0.0416025147            0.0020000000      NO
          MAX step            0.1386291069            0.0040000000      NO
          ........................................................
          Max(Bonds)      0.0734      Max(Angles)    2.86
          Max(Dihed)        1.84      Max(Improp)    0.00
          ---------------------------------------------------------------------

The optimization has not yet converged - more geometry cycles are needed


    ---------------------------------------------------------------------------
                         Redundant Internal Coordinates
                            (Angstroem and degrees)

        Definition                    Value    dE/dq     Step     New-Value
    ----------------------------------------------------------------------------
     1. B(C   1,F   0)                3.1487  0.028074 -0.0000    3.1487 C 
     2. B(Cl  2,C   1)                1.1176 -1.749756  0.0000    1.1176 C 
     3. B(H   3,C   1)                1.4308  0.046810 -0.0734    1.3575   
     4. B(H   4,C   1)                1.5566  0.043661 -0.0672    1.4894   
     5. B(H   4,F   0)                2.1336 -0.007615  0.0397    2.1734   
     6. B(H   4,H   3)                1.7314  0.009224 -0.0202    1.7112   
     7. B(H   5,C   1)                1.5513  0.043332 -0.0707    1.4805   
     8. B(H   5,H   3)                1.7299  0.011017 -0.0245    1.7053   
     9. B(H   5,H   4)                1.7036  0.008586 -0.0211    1.6825   
    10. A(H   4,C   1,H   5)           66.48 -0.015919    2.40     68.88   
    11. A(H   3,C   1,H   5)           70.78 -0.017883    2.77     73.56   
    12. A(Cl  2,C   1,H   3)          138.19  0.011679   -1.78    136.40   
    13. A(Cl  2,C   1,H   4)          139.36  0.010995   -1.68    137.69   
    14. A(H   3,C   1,H   4)           70.70 -0.018687    2.86     73.56   
    15. A(Cl  2,C   1,H   5)          139.26  0.010388   -1.61    137.66   
    16. A(C   1,H   3,H   4)           58.05  0.008783   -1.29     56.76   
    17. A(C   1,H   3,H   5)           57.86  0.008242   -1.33     56.54   
    18. A(H   4,H   3,H   5)           58.97 -0.000483    0.04     59.00   
    19. A(C   1,H   4,H   5)           56.61  0.007867   -1.30     55.31   
    20. A(F   0,H   4,C   1)          116.26  0.000126    1.08    117.33   
    21. A(F   0,H   4,H   3)           77.39 -0.009927    2.51     79.90   
    22. A(C   1,H   4,H   3)           51.25  0.009904   -1.58     49.68   
    23. A(H   3,H   4,H   5)           60.47  0.000728   -0.14     60.33   
    24. A(F   0,H   4,H   5)           66.91 -0.008431    2.32     69.23   
    25. A(C   1,H   5,H   4)           56.91  0.008052   -1.10     55.81   
    26. A(H   3,H   5,H   4)           60.56 -0.000245    0.11     60.67   
    27. A(C   1,H   5,H   3)           51.36  0.009641   -1.45     49.91   
    28. D(H   5,H   3,C   1,Cl  2)    144.48  0.004139   -0.61    143.87   
    29. D(H   5,H   3,C   1,H   4)    -70.99  0.008211   -1.21    -72.20   
    30. D(H   4,H   3,C   1,Cl  2)   -144.53 -0.004072    0.60   -143.93   
    31. D(H   4,H   3,C   1,H   5)     70.99 -0.008211    1.21     72.20   
    32. D(C   1,H   4,H   3,H   5)     69.12  0.006919   -1.15     67.97   
    33. D(F   0,H   4,H   3,C   1)   -139.54 -0.002377   -0.22   -139.75   
    34. D(F   0,H   4,C   1,H   3)     44.92 -0.004932    0.84     45.76   
    35. D(H   3,H   4,C   1,H   5)    -76.83  0.009115   -1.44    -78.27   
    36. D(F   0,H   4,C   1,Cl  2)   -171.52 -0.000531    0.18   -171.34   
    37. D(F   0,H   4,H   3,H   5)    -70.42  0.004542   -1.36    -71.78   
    38. D(H   5,H   4,C   1,Cl  2)   -139.62 -0.004713    0.79   -138.83   
    39. D(F   0,H   4,C   1,H   5)    -31.90  0.004182   -0.61    -32.51   
    40. D(H   5,H   4,H   3,C   1)    -69.12 -0.006919    1.15    -67.97   
    41. D(H   3,H   4,C   1,Cl  2)    143.56  0.004401   -0.66    142.90   
    42. D(H   5,H   4,C   1,H   3)     76.83 -0.009115    1.44     78.27   
    43. D(H   3,H   5,C   1,Cl  2)   -143.59 -0.005011    0.72   -142.87   
    44. D(H   3,H   5,C   1,H   4)     76.70 -0.010343    1.58     78.28   
    45. D(C   1,H   5,H   4,H   3)     60.78  0.009658   -1.51     59.27   
    46. D(H   4,H   5,C   1,H   3)    -76.70  0.010343   -1.58    -78.28   
    47. D(C   1,H   5,H   3,H   4)    -69.43 -0.007833    1.08    -68.35   
    48. D(H   4,H   5,H   3,C   1)     69.43  0.007833   -1.08     68.35   
    49. D(H   4,H   5,C   1,Cl  2)    139.71  0.005333   -0.86    138.85   
    50. D(C   1,H   5,H   4,F   0)    148.99  0.001916    0.33    149.32   
    51. D(H   3,H   5,H   4,F   0)     88.21 -0.007742    1.84     90.05   
    52. D(H   3,H   5,H   4,C   1)    -60.78 -0.009658    1.51    -59.27   
    ----------------------------------------------------------------------------

         *************************************************************
         *                GEOMETRY OPTIMIZATION CYCLE   2            *
         *************************************************************
---------------------------------
CARTESIAN COORDINATES (ANGSTROEM)
---------------------------------
  F     -2.497609   -0.079694    0.068815
  C      0.649196    0.001412   -0.005540
  Cl     1.752568    0.111986   -0.144752
  H     -0.173520   -0.755913    0.766022
  H     -0.540495   -0.315814   -0.845274
  H     -0.500797    0.864478    0.351898

----------------------------
CARTESIAN COORDINATES (A.U.)
----------------------------
  NO LB      ZA    FRAG     MASS         X           Y           Z
   0 F     9.0000    0    18.998   -4.719797   -0.150600    0.130042
   1 C     6.0000    0    12.011    1.226803    0.002667   -0.010470
   2 Cl   17.0000    0    35.453    3.311873    0.211624   -0.273541
   3 H     1.0000    0     1.008   -0.327906   -1.428468    1.447571
   4 H     1.0000    0     1.008   -1.021388   -0.596802   -1.597336
   5 H     1.0000    0     1.008   -0.946369    1.633627    0.664991

--------------------------------
INTERNAL COORDINATES (ANGSTROEM)
--------------------------------
 F      0   0   0     0.000000000000     0.00000000     0.00000000
 C      1   0   0     3.148728632280     0.00000000     0.00000000
 Cl     2   1   0     1.117602340236   172.81778493     0.00000000
 H      2   1   3     1.358569394489    50.72998866   188.41013933
 H      2   1   4     1.490352153651    37.81901872   117.33162532
 H      2   1   5     1.481597106364    39.96803673   128.60297947

---------------------------
INTERNAL COORDINATES (A.U.)
---------------------------
 F      0   0   0     0.000000000000     0.00000000     0.00000000
 C      1   0   0     5.950234785045     0.00000000     0.00000000
 Cl     2   1   0     2.111962349676   172.81778493     0.00000000
 H      2   1   3     2.567324089512    50.72998866   188.41013933
 H      2   1   4     2.816357413501    37.81901872   117.33162532
 H      2   1   5     2.799812771838    39.96803673   128.60297947

 One Electron integrals                  ... done
 Pre-screening matrix                    ... done

Diagonalization of the overlap matrix:
Smallest eigenvalue                        ... 2.737e-03
Time for diagonalization                   ...    0.001 sec
Threshold for overlap eigenvalues          ... 1.000e-08
Number of eigenvalues below threshold      ... 0
Time for construction of square roots      ...    0.000 sec
Total time needed                          ...    0.002 sec

-------------------
DFT GRID GENERATION
-------------------

General Integration Accuracy     IntAcc      ...  4.340
Radial Grid Type                 RadialGrid  ... Gauss-Chebyshev
Angular Grid (max. acc.)         AngularGrid ... Lebedev-110
Angular grid pruning method      GridPruning ... 3 (G Style)
Weight generation scheme         WeightScheme... Becke
Basis function cutoff            BFCut       ...    1.0000e-11
Integration weight cutoff        WCut        ...    1.0000e-14
Grids for H and He will be reduced by one unit

# of grid points (after initial pruning)     ...   7622 (   0.0 sec)
# of grid points (after weights+screening)   ...   7431 (   0.0 sec)
nearest neighbour list constructed           ...    0.0 sec
Grid point re-assignment to atoms done       ...    0.0 sec
Grid point division into batches done        ...    0.0 sec
Reduced shell lists constructed in    0.0 sec

Total number of grid points                  ...     7431
Total number of batches                      ...      121
Average number of points per batch           ...       61
Average number of grid points per atom       ...     1238
Average number of shells per batch           ...    22.29 (76.85%)
Average number of basis functions per batch  ...    46.94 (76.96%)
Average number of large shells per batch     ...    19.48 (87.39%)
Average number of large basis fcns per batch ...    40.13 (85.49%)
Maximum spatial batch extension              ...  19.08, 25.19, 25.60 au
Average spatial batch extension              ...   4.52,  5.27,  5.17 au

Time for grid setup =    0.030 sec

--------------------
COSX GRID GENERATION
--------------------

General Integration Accuracy     IntAcc      ...  3.340
Radial Grid Type                 RadialGrid  ... Gauss-Chebyshev
Angular Grid (max. acc.)         AngularGrid ... Lebedev-50
Angular grid pruning method      GridPruning ... 3 (G Style)
Weight generation scheme         WeightScheme... Becke
Basis function cutoff            BFCut       ...    1.0000e-11
Integration weight cutoff        WCut        ...    1.0000e-14
Grids for H and He will be reduced by one unit

# of grid points (after initial pruning)     ...   2826 (   0.0 sec)
# of grid points (after weights+screening)   ...   2765 (   0.0 sec)
nearest neighbour list constructed           ...    0.0 sec
Grid point re-assignment to atoms done       ...    0.0 sec
Grid point division into batches done        ...    0.0 sec
Reduced shell lists constructed in    0.0 sec

Total number of grid points                  ...     2765
Total number of batches                      ...       46
Average number of points per batch           ...       60
Average number of grid points per atom       ...      461
Average number of shells per batch           ...    23.74 (81.88%)
Average number of basis functions per batch  ...    50.64 (83.01%)
Average number of large shells per batch     ...    20.81 (87.63%)
Average number of large basis fcns per batch ...    43.32 (85.55%)
Maximum spatial batch extension              ...  18.61, 20.83, 20.72 au
Average spatial batch extension              ...   5.34,  7.23,  6.49 au

Overlap Fitting                  UseSFitting ... on
Constructing numerical overlap ... done (      0.0 sec)
Inverting numerical overlap    ... done (      0.0 sec)
Obtaining analytic overlap     ... done (      0.0 sec)
Final contraction and storage  ... done (      0.0 sec)


General Integration Accuracy     IntAcc      ...  3.670
Radial Grid Type                 RadialGrid  ... Gauss-Chebyshev
Angular Grid (max. acc.)         AngularGrid ... Lebedev-50
Angular grid pruning method      GridPruning ... 3 (G Style)
Weight generation scheme         WeightScheme... Becke
Basis function cutoff            BFCut       ...    1.0000e-11
Integration weight cutoff        WCut        ...    1.0000e-14
Grids for H and He will be reduced by one unit

# of grid points (after initial pruning)     ...   3566 (   0.0 sec)
# of grid points (after weights+screening)   ...   3489 (   0.0 sec)
nearest neighbour list constructed           ...    0.0 sec
Grid point re-assignment to atoms done       ...    0.0 sec
Grid point division into batches done        ...    0.0 sec
Reduced shell lists constructed in    0.0 sec

Total number of grid points                  ...     3489
Total number of batches                      ...       58
Average number of points per batch           ...       60
Average number of grid points per atom       ...      582
Average number of shells per batch           ...    23.66 (81.59%)
Average number of basis functions per batch  ...    50.20 (82.30%)
Average number of large shells per batch     ...    20.75 (87.68%)
Average number of large basis fcns per batch ...    43.19 (86.02%)
Maximum spatial batch extension              ...  19.73, 22.67, 22.67 au
Average spatial batch extension              ...   5.15,  6.36,  6.23 au

Overlap Fitting                  UseSFitting ... on
Constructing numerical overlap ... done (      0.0 sec)
Inverting numerical overlap    ... done (      0.0 sec)
Obtaining analytic overlap     ... done (      0.0 sec)
Final contraction and storage  ... done (      0.0 sec)


General Integration Accuracy     IntAcc      ...  4.010
Radial Grid Type                 RadialGrid  ... Gauss-Chebyshev
Angular Grid (max. acc.)         AngularGrid ... Lebedev-110
Angular grid pruning method      GridPruning ... 3 (G Style)
Weight generation scheme         WeightScheme... Becke
Basis function cutoff            BFCut       ...    1.0000e-11
Integration weight cutoff        WCut        ...    1.0000e-14
Grids for H and He will be reduced by one unit

# of grid points (after initial pruning)     ...   6574 (   0.0 sec)
# of grid points (after weights+screening)   ...   6411 (   0.0 sec)
nearest neighbour list constructed           ...    0.0 sec
Grid point re-assignment to atoms done       ...    0.0 sec
Grid point division into batches done        ...    0.0 sec
Reduced shell lists constructed in    0.0 sec

Total number of grid points                  ...     6411
Total number of batches                      ...      102
Average number of points per batch           ...       62
Average number of grid points per atom       ...     1068
Average number of shells per batch           ...    22.58 (77.87%)
Average number of basis functions per batch  ...    47.44 (77.77%)
Average number of large shells per batch     ...    19.51 (86.41%)
Average number of large basis fcns per batch ...    40.27 (84.90%)
Maximum spatial batch extension              ...  18.36, 24.28, 24.28 au
Average spatial batch extension              ...   4.63,  5.38,  5.40 au

Overlap Fitting                  UseSFitting ... on
Constructing numerical overlap ... done (      0.0 sec)
Inverting numerical overlap    ... done (      0.0 sec)
Obtaining analytic overlap     ... done (      0.0 sec)
Final contraction and storage  ... done (      0.0 sec)

Time for X-Grid setup             =    0.159 sec
--------------
SCF ITERATIONS
--------------
ITER       Energy         Delta-E        Max-DP      RMS-DP      [F,P]     Damp
               ***  Starting incremental Fock matrix formation  ***
  0   -598.6352533822   0.000000000000 0.01524876  0.00078147  0.0130264 0.7000
                      *** Initiating the SOSCF procedure ***
                      *** Re-Reading the Fockian *** 
                      *** Removing any level shift *** 
ITER      Energy       Delta-E        Grad      Rot      Max-DP    RMS-DP
  1   -598.63581053  -0.0005571450  0.001419  0.001419  0.037142  0.001998
               *** Restarting incremental Fock matrix formation ***
  2   -598.63681693  -0.0010063984  0.003735  0.013454  0.040702  0.001531
  3   -598.63629848   0.0005184450  0.008815  0.009014  0.029161  0.001072
  4   -598.63702083  -0.0007223542  0.000771  0.002825  0.003316  0.000247
  5   -598.63701323   0.0000076081  0.001139  0.001735  0.001854  0.000150
  6   -598.63702880  -0.0000155727  0.000153  0.000173  0.000949  0.000034
  7   -598.63702859   0.0000002119  0.000187  0.000113  0.000630  0.000021
  8   -598.63702896  -0.0000003751  0.000005  0.000007  0.000018  0.000001
                  ***Gradient check signals convergence***
              ***Rediagonalizing the Fockian in SOSCF/NRSCF***

               *****************************************************
               *                     SUCCESS                       *
               *           SCF CONVERGED AFTER   9 CYCLES          *
               *****************************************************

Setting up the final grid:

General Integration Accuracy     IntAcc      ...  4.670
Radial Grid Type                 RadialGrid  ... Gauss-Chebyshev
Angular Grid (max. acc.)         AngularGrid ... Lebedev-302
Angular grid pruning method      GridPruning ... 3 (G Style)
Weight generation scheme         WeightScheme... Becke
Basis function cutoff            BFCut       ...    1.0000e-11
Integration weight cutoff        WCut        ...    1.0000e-14
Grids for H and He will be reduced by one unit

# of grid points (after initial pruning)     ...  29404 (   0.0 sec)
# of grid points (after weights+screening)   ...  28556 (   0.0 sec)
nearest neighbour list constructed           ...    0.0 sec
Grid point re-assignment to atoms done       ...    0.0 sec
Grid point division into batches done        ...    0.1 sec
Reduced shell lists constructed in    0.2 sec

Total number of grid points                  ...    28556
Total number of batches                      ...      450
Average number of points per batch           ...       63
Average number of grid points per atom       ...     4759
Average number of shells per batch           ...    20.44 (70.49%)
Average number of basis functions per batch  ...    42.89 (70.32%)
Average number of large shells per batch     ...    17.37 (84.99%)
Average number of large basis fcns per batch ...    35.60 (83.00%)
Maximum spatial batch extension              ...  20.00, 20.71, 22.81 au
Average spatial batch extension              ...   2.98,  3.30,  3.30 au

Final grid set up in    0.2 sec
Final integration                            ... done (   0.1 sec)
Change in XC energy                          ...    -0.000606877
Integrated number of electrons               ...    36.000057712
Previous integrated no of electrons          ...    36.000436157
Old exchange energy                            =    -11.049049022 Eh
New exchange energy                            =    -11.048635037 Eh
Exchange energy change after final integration =      0.000413984 Eh
Total energy after final integration           =   -598.637221858 Eh
Final COS-X integration done in                =     0.422 sec
Total Energy       :         -598.63722186 Eh          -16289.74696 eV
  Last Energy change         ...   -1.9528e-09  Tolerance :   1.0000e-08
  Last MAX-Density change    ...    3.9968e-15  Tolerance :   1.0000e-07
             **** THE GBW FILE WAS UPDATED (test_ts_reopt_optts_backwards_displacement_orca.gbw) ****
             **** DENSITY FILE WAS UPDATED (test_ts_reopt_optts_backwards_displacement_orca.scfp.tmp) ****
             **** ENERGY FILE WAS UPDATED (test_ts_reopt_optts_backwards_displacement_orca.en.tmp) ****
Total SCF time: 0 days 0 hours 0 min 4 sec 


-------------------------------------------------------------------------------
                          DFT DISPERSION CORRECTION                            
                                                                               
                              DFTD3 V3.1  Rev 1                                
                          USING Becke-Johnson damping                          
-------------------------------------------------------------------------------
-------------------------   ----------------
Dispersion correction           -0.003115587
-------------------------   ----------------


-------------------------   --------------------
FINAL SINGLE POINT ENERGY      -598.640337445213
-------------------------   --------------------

------------------------------------------------------------------------------
                         ORCA SCF GRADIENT CALCULATION
------------------------------------------------------------------------------

Gradient of the Kohn-Sham DFT energy:
Kohn-Sham wavefunction type      ... RKS
Hartree-Fock exchange scaling    ...    0.250
Number of operators              ...    1
Number of atoms                  ...    6
Basis set dimensions             ...   61
Integral neglect threshold       ... 2.5e-11
Integral primitive cutoff        ... 2.5e-12

Nuclear repulsion gradient       ... done
One Electron Gradient            ... done
Pre-screening matrix             ... done
RI-J gradient                    ... done
COSX-gradient                    ... done
Exchange-correlation gradient    ... done
Dispersion correction            ... done

------------------
CARTESIAN GRADIENT
------------------

   1   F   :   -0.016859109   -0.002278322    0.002258751
   2   C   :    1.918995645    0.192149692   -0.240841595
   3   Cl  :   -1.741041214   -0.176161688    0.220291322
   4   H   :   -0.053294298   -0.022044558    0.023964618
   5   H   :   -0.051866267   -0.011154743   -0.017785800
   6   H   :   -0.052934951    0.017747953    0.013100690

Difference to translation invariance:
           :    0.0029998070   -0.0017416654    0.0009879854

Norm of the cartesian gradient     ...    2.6265701681
RMS gradient                       ...    0.6190885257
MAX gradient                       ...    1.9189956452

-------
TIMINGS
-------

Total SCF gradient time            ...        1.326 sec

One electron gradient       ....       0.007 sec  (  0.5%)
Prescreening matrices       ....       0.015 sec  (  1.2%)
RI-J Coulomb gradient       ....       0.124 sec  (  9.4%)
COSX gradient               ....       0.406 sec  ( 30.6%)
XC gradient                 ....       0.464 sec  ( 35.0%)
------------------------------------------------------------------------------
                         ORCA GEOMETRY RELAXATION STEP
------------------------------------------------------------------------------

Reading the OPT-File                    .... done
Getting information on internals        .... done
Copying old internal coords+grads       .... done
Making the new internal coordinates     .... (new redundants).... done
Validating the new internal coordinates .... (new redundants).... done
Calculating the B-matrix                .... done
Calculating the G,G- and P matrices     .... done
Transforming gradient to internals      .... done
Projecting the internal gradient        .... done
Number of atoms                         ....   6
Number of internal coordinates          ....  52
Current Energy                          ....  -598.640337445 Eh
Current gradient norm                   ....     2.626570168 Eh/bohr
Maximum allowed component of the step   ....  0.300
Current trust radius                    ....  0.300
Updating the Hessian (BFGS)             .... done
Forming the augmented Hessian           .... done
Diagonalizing the augmented Hessian     .... done
Last element of RFO vector              ....  0.744084843
Lowest eigenvalues of augmented Hessian:
 -0.079483815  0.011125359  0.024622608  0.027313398  0.034149115
Length of the computed step             ....  0.897861502
Warning: the length of the step is outside the trust region - taking restricted step instead
The input lambda is                     ....    -0.079484
   iter:   1  x=   -0.123017  g=   16.450853 f(x)=     0.716155
   iter:   2  x=   -0.177523  g=    5.450749 f(x)=     0.297099
   iter:   3  x=   -0.232182  g=    2.054755 f(x)=     0.112310
   iter:   4  x=   -0.266693  g=    0.984693 f(x)=     0.033983
   iter:   5  x=   -0.275508  g=    0.669600 f(x)=     0.005902
   iter:   6  x=   -0.275936  g=    0.611351 f(x)=     0.000262
   iter:   7  x=   -0.275937  g=    0.608695 f(x)=     0.000001
   iter:   8  x=   -0.275937  g=    0.608689 f(x)=     0.000000
   iter:   9  x=   -0.275937  g=    0.608689 f(x)=    -0.000000
The output lambda is                    ....    -0.275937 (9 iterations)
The final length of the internal step   ....  0.300000000
Converting the step to cartesian space:
 Initial RMS(Int)=    0.0416025147
Transforming coordinates:
 Iter   0:  RMS(Cart)=    0.0502728392 RMS(Int)=    0.0420122261
 Iter   1:  RMS(Cart)=    0.0009500394 RMS(Int)=    0.0012338809
 Iter   2:  RMS(Cart)=    0.0000375228 RMS(Int)=    0.0000380703
 Iter   3:  RMS(Cart)=    0.0000007826 RMS(Int)=    0.0000008853
 Iter   4:  RMS(Cart)=    0.0000000179 RMS(Int)=    0.0000000194
Imposing constraints:
 Iter   0:  RMS(Cart)=    0.0001935577 RMS(Int)=    0.0003194739
 Iter   1:  RMS(Cart)=    0.0000660400 RMS(Int)=    0.0001091750
 Iter   2:  RMS(Cart)=    0.0000225682 RMS(Int)=    0.0000373090
 Iter   3:  RMS(Cart)=    0.0000077123 RMS(Int)=    0.0000127498
 Iter   4:  RMS(Cart)=    0.0000026356 RMS(Int)=    0.0000043571
 Iter   5:  RMS(Cart)=    0.0000009007 RMS(Int)=    0.0000014890
 Iter   6:  RMS(Cart)=    0.0000003078 RMS(Int)=    0.0000005088
 Iter   7:  RMS(Cart)=    0.0000001052 RMS(Int)=    0.0000001739
 Iter   8:  RMS(Cart)=    0.0000000359 RMS(Int)=    0.0000000594
CONVERGED
done
Storing new coordinates                 .... done

                                .--------------------.
          ----------------------|Geometry convergence|-------------------------
          Item                value                   Tolerance       Converged
          ---------------------------------------------------------------------
          Energy change      -0.0272237928            0.0000050000      NO
          RMS gradient        0.0123260809            0.0001000000      NO
          MAX gradient        0.0397276576            0.0003000000      NO
          RMS step            0.0416025147            0.0020000000      NO
          MAX step            0.1340738320            0.0040000000      NO
          ........................................................
          Max(Bonds)      0.0709      Max(Angles)    3.01
          Max(Dihed)        1.85      Max(Improp)    0.00
          ---------------------------------------------------------------------

The optimization has not yet converged - more geometry cycles are needed


    ---------------------------------------------------------------------------
                         Redundant Internal Coordinates
                            (Angstroem and degrees)

        Definition                    Value    dE/dq     Step     New-Value
    ----------------------------------------------------------------------------
     1. B(C   1,F   0)                3.1487  0.025586  0.0000    3.1487 C 
     2. B(Cl  2,C   1)                1.1176 -1.764204 -0.0000    1.1176 C 
     3. B(H   3,C   1)                1.3586  0.041435 -0.0709    1.2876   
     4. B(H   4,C   1)                1.4904  0.039991 -0.0653    1.4250   
     5. B(H   4,F   0)                2.1729 -0.006964  0.0359    2.2088   
     6. B(H   4,H   3)                1.7102  0.010778 -0.0181    1.6921   
     7. B(H   5,C   1)                1.4816  0.039893 -0.0703    1.4113   
     8. B(H   5,H   3)                1.7042  0.012260 -0.0216    1.6825   
     9. B(H   5,H   4)                1.6816  0.009968 -0.0176    1.6640   
    10. A(H   4,C   1,H   5)           68.92 -0.015217    2.62     71.54   
    11. A(H   3,C   1,H   5)           73.60 -0.016956    3.00     76.60   
    12. A(Cl  2,C   1,H   3)          136.37  0.010860   -1.85    134.52   
    13. A(Cl  2,C   1,H   4)          137.64  0.010549   -1.78    135.86   
    14. A(H   3,C   1,H   4)           73.62 -0.017630    3.01     76.63   
    15. A(Cl  2,C   1,H   5)          137.62  0.010299   -1.84    135.78   
    16. A(C   1,H   3,H   4)           56.73  0.008658   -1.39     55.34   
    17. A(C   1,H   3,H   5)           56.51  0.008241   -1.50     55.01   
    18. A(H   4,H   3,H   5)           59.01 -0.000489    0.07     59.08   
    19. A(C   1,H   4,H   5)           55.29  0.007574   -1.45     53.84   
[...]
Final contraction and storage  ... done (      0.0 sec)


General Integration Accuracy     IntAcc      ...  4.010
Radial Grid Type                 RadialGrid  ... Gauss-Chebyshev
Angular Grid (max. acc.)         AngularGrid ... Lebedev-110
Angular grid pruning method      GridPruning ... 3 (G Style)
Weight generation scheme         WeightScheme... Becke
Basis function cutoff            BFCut       ...    1.0000e-11
Integration weight cutoff        WCut        ...    1.0000e-14
Grids for H and He will be reduced by one unit

# of grid points (after initial pruning)     ...   6574 (   0.0 sec)
# of grid points (after weights+screening)   ...   6394 (   0.0 sec)
nearest neighbour list constructed           ...    0.0 sec
Grid point re-assignment to atoms done       ...    0.0 sec
Grid point division into batches done        ...    0.0 sec
Reduced shell lists constructed in    0.0 sec

Total number of grid points                  ...     6394
Total number of batches                      ...      103
Average number of points per batch           ...       62
Average number of grid points per atom       ...     1066
Average number of shells per batch           ...    22.41 (77.29%)
Average number of basis functions per batch  ...    46.84 (76.78%)
Average number of large shells per batch     ...    19.36 (86.36%)
Average number of large basis fcns per batch ...    39.97 (85.34%)
Maximum spatial batch extension              ...  17.52, 21.46, 19.08 au
Average spatial batch extension              ...   5.10,  5.42,  4.96 au

Overlap Fitting                  UseSFitting ... on
Constructing numerical overlap ... done (      0.0 sec)
Inverting numerical overlap    ... done (      0.0 sec)
Obtaining analytic overlap     ... done (      0.0 sec)
Final contraction and storage  ... done (      0.0 sec)

Time for X-Grid setup             =    0.165 sec
--------------
SCF ITERATIONS
--------------
ITER       Energy         Delta-E        Max-DP      RMS-DP      [F,P]     Damp
               ***  Starting incremental Fock matrix formation  ***
                      *** Initiating the SOSCF procedure ***
                      *** Re-Reading the Fockian *** 
                      *** Removing any level shift *** 
ITER      Energy       Delta-E        Grad      Rot      Max-DP    RMS-DP
  0   -598.72595103 -598.7259510300  0.000459  0.000459  0.001146  0.000071
               *** Restarting incremental Fock matrix formation ***
  1   -598.72595340  -0.0000023723  0.000097  0.000219  0.001116  0.000054
  2   -598.72595361  -0.0000002088  0.000031  0.000088  0.000231  0.000014
  3   -598.72595360   0.0000000141  0.000049  0.000039  0.000108  0.000005
  4   -598.72595361  -0.0000000099  0.000008  0.000008  0.000027  0.000002
  5   -598.72595360   0.0000000046  0.000004  0.000003  0.000009  0.000001
                  ***Gradient check signals convergence***
              ***Rediagonalizing the Fockian in SOSCF/NRSCF***

               *****************************************************
               *                     SUCCESS                       *
               *           SCF CONVERGED AFTER   6 CYCLES          *
               *****************************************************

Setting up the final grid:

General Integration Accuracy     IntAcc      ...  4.670
Radial Grid Type                 RadialGrid  ... Gauss-Chebyshev
Angular Grid (max. acc.)         AngularGrid ... Lebedev-302
Angular grid pruning method      GridPruning ... 3 (G Style)
Weight generation scheme         WeightScheme... Becke
Basis function cutoff            BFCut       ...    1.0000e-11
Integration weight cutoff        WCut        ...    1.0000e-14
Grids for H and He will be reduced by one unit

# of grid points (after initial pruning)     ...  29404 (   0.0 sec)
# of grid points (after weights+screening)   ...  28542 (   0.0 sec)
nearest neighbour list constructed           ...    0.0 sec
Grid point re-assignment to atoms done       ...    0.0 sec
Grid point division into batches done        ...    0.2 sec
Reduced shell lists constructed in    0.2 sec

Total number of grid points                  ...    28542
Total number of batches                      ...      448
Average number of points per batch           ...       63
Average number of grid points per atom       ...     4757
Average number of shells per batch           ...    20.11 (69.35%)
Average number of basis functions per batch  ...    41.75 (68.44%)
Average number of large shells per batch     ...    17.22 (85.64%)
Average number of large basis fcns per batch ...    35.42 (84.84%)
Maximum spatial batch extension              ...  22.23, 20.00, 21.18 au
Average spatial batch extension              ...   3.12,  3.27,  3.15 au

Final grid set up in    0.3 sec
Final integration                            ... done (   0.1 sec)
Change in XC energy                          ...     0.000238343
Integrated number of electrons               ...    35.999971409
Previous integrated no of electrons          ...    36.002213784
Old exchange energy                            =    -11.129282508 Eh
New exchange energy                            =    -11.128213473 Eh
Exchange energy change after final integration =      0.001069034 Eh
Total energy after final integration           =   -598.724646230 Eh
Final COS-X integration done in                =     0.391 sec

----------------
TOTAL SCF ENERGY
----------------

Total Energy       :         -598.72464623 Eh          -16292.12590 eV

Components:
Nuclear Repulsion  :          106.42274680 Eh            2895.91017 eV
Electronic Energy  :         -705.14739303 Eh          -19188.03607 eV
One Electron Energy:        -1046.56372336 Eh          -28478.44673 eV
Two Electron Energy:          341.41633033 Eh            9290.41066 eV

Virial components:
Potential Energy   :        -1199.55529285 Eh          -32641.55898 eV
Kinetic Energy     :          600.83064662 Eh           16349.43308 eV
Virial Ratio       :            1.99649485


DFT components:
N(Alpha)           :       17.999985704508 electrons
N(Beta)            :       17.999985704508 electrons
N(Total)           :       35.999971409015 electrons
E(X)               :      -33.239005087422 Eh       
E(C)               :       -1.321310969984 Eh       
E(XC)              :      -34.560316057406 Eh       
DFET-embed. en.    :        0.000000000000 Eh       

---------------
SCF CONVERGENCE
---------------

  Last Energy change         ...   -4.6947e-09  Tolerance :   1.0000e-08
  Last MAX-Density change    ...    4.8850e-15  Tolerance :   1.0000e-07
  Last RMS-Density change    ...    1.4031e-16  Tolerance :   5.0000e-09
  Last Orbital Gradient      ...    3.6827e-07  Tolerance :   1.0000e-05
  Last Orbital Rotation      ...    1.0474e-06  Tolerance :   1.0000e-05

             **** THE GBW FILE WAS UPDATED (test_ts_reopt_optts_backwards_displacement_orca.gbw) ****
             **** DENSITY FILE WAS UPDATED (test_ts_reopt_optts_backwards_displacement_orca.scfp.tmp) ****
             **** ENERGY FILE WAS UPDATED (test_ts_reopt_optts_backwards_displacement_orca.en.tmp) ****
----------------
ORBITAL ENERGIES
----------------

  NO   OCC          E(Eh)            E(eV) 
   0   2.0000    -101.484802     -2761.5419 
   1   2.0000     -24.260880      -660.1721 
   2   2.0000     -10.079070      -274.2654 
   3   2.0000      -9.379906      -255.2402 
   4   2.0000      -7.122126      -193.8029 
   5   2.0000      -7.105320      -193.3456 
   6   2.0000      -7.104270      -193.3170 
   7   2.0000      -0.930118       -25.3098 
   8   2.0000      -0.650510       -17.7013 
   9   2.0000      -0.448667       -12.2089 
  10   2.0000      -0.387510       -10.5447 
  11   2.0000      -0.380654       -10.3581 
  12   2.0000      -0.334818        -9.1109 
  13   2.0000      -0.068222        -1.8564 
  14   2.0000      -0.054498        -1.4830 
  15   2.0000       0.055267         1.5039 
  16   2.0000       0.056685         1.5425 
  17   2.0000       0.057929         1.5763 
  18   0.0000       0.243542         6.6271 
  19   0.0000       0.261853         7.1254 
  20   0.0000       0.372615        10.1394 
  21   0.0000       0.409682        11.1480 
  22   0.0000       0.563173        15.3247 
  23   0.0000       0.639851        17.4112 
  24   0.0000       0.664293        18.0763 
  25   0.0000       0.681101        18.5337 
  26   0.0000       0.721633        19.6366 
  27   0.0000       0.752127        20.4664 
  28   0.0000       0.838269        22.8105 
  29   0.0000       0.892317        24.2812 
  30   0.0000       0.907768        24.7016 
  31   0.0000       1.060120        28.8473 
  32   0.0000       1.065992        29.0071 
  33   0.0000       1.110363        30.2145 
  34   0.0000       1.152183        31.3525 
  35   0.0000       1.157343        31.4929 
  36   0.0000       1.359174        36.9850 
  37   0.0000       1.542682        41.9785 
  38   0.0000       1.552777        42.2532 
  39   0.0000       1.556279        42.3485 
  40   0.0000       1.578015        42.9400 
  41   0.0000       1.618734        44.0480 
  42   0.0000       1.793739        48.8101 
  43   0.0000       1.813446        49.3464 
  44   0.0000       1.900404        51.7126 
  45   0.0000       2.019116        54.9429 
  46   0.0000       2.086240        56.7695 
  47   0.0000       2.136050        58.1249 
  48   0.0000       2.147086        58.4252 
  49   0.0000       2.401529        65.3489 
  50   0.0000       2.548611        69.3512 
  51   0.0000       2.552370        69.4535 
  52   0.0000       2.602914        70.8289 
  53   0.0000       3.159816        85.9830 
  54   0.0000       3.172583        86.3304 
  55   0.0000       3.227914        87.8360 
  56   0.0000       3.564752        97.0018 
  57   0.0000       3.568031        97.0911 
  58   0.0000       3.571117        97.1750 
  59   0.0000       3.571757        97.1924 
  60   0.0000       3.589143        97.6655 

                    ********************************
                    * MULLIKEN POPULATION ANALYSIS *
                    ********************************

-----------------------
MULLIKEN ATOMIC CHARGES
-----------------------
   0 F :   -0.793256
   1 C :   -0.297714
   2 Cl:    0.161088
   3 H :   -0.060059
   4 H :    0.054224
   5 H :   -0.064284
Sum of atomic charges:   -1.0000000

--------------------------------
MULLIKEN REDUCED ORBITAL CHARGES
--------------------------------
  0 F s       :     3.974872  s :     3.974872
      pz      :     1.974807  p :     5.818295
      px      :     1.847200
      py      :     1.996289
      dz2     :     0.000009  d :     0.000089
      dxz     :     0.000027
      dyz     :     0.000001
      dx2y2   :     0.000046
      dxy     :     0.000006
  1 C s       :     2.936628  s :     2.936628
      pz      :     1.040674  p :     3.264210
      px      :     1.195134
      py      :     1.028402
      dz2     :     0.024657  d :     0.096875
      dxz     :     0.014306
      dyz     :     0.026632
      dx2y2   :     0.015989
      dxy     :     0.015290
  2 Cls       :     5.741757  s :     5.741757
      pz      :     3.552092  p :    10.920338
      px      :     3.569460
      py      :     3.798787
      dz2     :     0.058888  d :     0.176816
      dxz     :     0.023733
      dyz     :     0.038569
      dx2y2   :     0.029224
      dxy     :     0.026402
  3 H s       :     1.037002  s :     1.037002
      pz      :     0.009472  p :     0.023057
      px      :     0.004604
      py      :     0.008981
  4 H s       :     0.914937  s :     0.914937
      pz      :     0.003883  p :     0.030839
      px      :     0.022872
      py      :     0.004085
  5 H s       :     1.041342  s :     1.041342
      pz      :     0.008697  p :     0.022942
      px      :     0.004896
      py      :     0.009349


                     *******************************
                     * LOEWDIN POPULATION ANALYSIS *
                     *******************************

----------------------
LOEWDIN ATOMIC CHARGES
----------------------
   0 F :   -0.832082
   1 C :   -0.540111
   2 Cl:    0.488660
   3 H :   -0.056298
   4 H :   -0.001401
   5 H :   -0.058767

-------------------------------
LOEWDIN REDUCED ORBITAL CHARGES
-------------------------------
  0 F s       :     3.977810  s :     3.977810
      pz      :     1.980959  p :     5.854124
      px      :     1.876185
      py      :     1.996981
      dz2     :     0.000017  d :     0.000148
      dxz     :     0.000042
      dyz     :     0.000002
      dx2y2   :     0.000080
      dxy     :     0.000008
  1 C s       :     2.824402  s :     2.824402
      pz      :     1.136089  p :     3.416224
      px      :     1.220849
      py      :     1.059286
      dz2     :     0.074612  d :     0.299485
      dxz     :     0.040304
      dyz     :     0.091436
      dx2y2   :     0.055033
      dxy     :     0.038101
  2 Cls       :     5.359309  s :     5.359309
      pz      :     3.585359  p :    10.875020
      px      :     3.588762
      py      :     3.700899
      dz2     :     0.092323  d :     0.277011
      dxz     :     0.046468
      dyz     :     0.053937
      dx2y2   :     0.045777
      dxy     :     0.038505
  3 H s       :     0.988936  s :     0.988936
      pz      :     0.027896  p :     0.067362
      px      :     0.014230
      py      :     0.025235
  4 H s       :     0.904882  s :     0.904882
      pz      :     0.011457  p :     0.096520
      px      :     0.073393
      py      :     0.011670
  5 H s       :     0.991617  s :     0.991617
      pz      :     0.025264  p :     0.067150
      px      :     0.014818
      py      :     0.027068


                      *****************************
                      * MAYER POPULATION ANALYSIS *
                      *****************************

  NA   - Mulliken gross atomic population
  ZA   - Total nuclear charge
  QA   - Mulliken gross atomic charge
  VA   - Mayer's total valence
  BVA  - Mayer's bonded valence
  FA   - Mayer's free valence

  ATOM       NA         ZA         QA         VA         BVA        FA
  0 F      9.7933     9.0000    -0.7933     0.3731     0.3731     0.0000
  1 C      6.2977     6.0000    -0.2977     3.8622     3.8622    -0.0000
  2 Cl    16.8389    17.0000     0.1611     1.7585     1.7585     0.0000
  3 H      1.0601     1.0000    -0.0601     0.9529     0.9529     0.0000
  4 H      0.9458     1.0000     0.0542     1.2269     1.2269     0.0000
  5 H      1.0643     1.0000    -0.0643     0.9509     0.9509     0.0000

  Mayer bond orders larger than 0.1
B(  0-F ,  4-H ) :   0.4104 B(  1-C ,  2-Cl) :   1.4432 B(  1-C ,  3-H ) :   0.8620 
B(  1-C ,  4-H ) :   0.7526 B(  1-C ,  5-H ) :   0.8612 B(  2-Cl,  3-H ) :   0.1146 
B(  2-Cl,  5-H ) :   0.1139 

-------
TIMINGS
-------

Total SCF time: 0 days 0 hours 0 min 3 sec 

Total time                  ....       3.577 sec
Sum of individual times     ....       3.463 sec  ( 96.8%)

Fock matrix formation       ....       2.961 sec  ( 82.8%)
  Split-RI-J                ....       0.839 sec  ( 28.3% of F)
  Chain of spheres X        ....       1.739 sec  ( 58.7% of F)
  COS-X 1 center corr.      ....       0.000 sec  (  0.0% of F)
  XC integration            ....       0.343 sec  ( 11.6% of F)
    Basis function eval.    ....       0.142 sec  ( 41.3% of XC)
    Density eval.           ....       0.050 sec  ( 14.6% of XC)
    XC-Functional eval.     ....       0.068 sec  ( 19.7% of XC)
    XC-Potential eval.      ....       0.060 sec  ( 17.5% of XC)
Diagonalization             ....       0.000 sec  (  0.0%)
Density matrix formation    ....       0.000 sec  (  0.0%)
Population analysis         ....       0.001 sec  (  0.0%)
Initial guess               ....       0.002 sec  (  0.0%)
Orbital Transformation      ....       0.000 sec  (  0.0%)
Orbital Orthonormalization  ....       0.000 sec  (  0.0%)
DIIS solution               ....       0.000 sec  (  0.0%)
SOSCF solution              ....       0.002 sec  (  0.1%)
Grid generation             ....       0.497 sec  ( 13.9%)


-------------------------------------------------------------------------------
                          DFT DISPERSION CORRECTION                            
                                                                               
                              DFTD3 V3.1  Rev 1                                
                          USING Becke-Johnson damping                          
-------------------------------------------------------------------------------
The PBE0 functional is recognized
Active option DFTDOPT                   ...         4   

molecular C6(AA) [au] = 485.894509 


            DFT-D V3
 parameters
 s6 scaling factor         :     1.0000 
 a1 scaling factor         :     0.4145 
 s8 scaling factor         :     1.2177 
 a2 scaling factor         :     4.8593 
 ad hoc parameters k1-k3   :    16.0000     1.3333    -4.0000 

 Edisp/kcal,au: -1.484167596071  -0.002365171363 
 E6   /kcal   :  -0.935121087 
 E8   /kcal   :  -0.549046509 
 % E8         :  36.993565306 

-------------------------   ----------------
Dispersion correction           -0.002365171
-------------------------   ----------------


-------------------------   --------------------
FINAL SINGLE POINT ENERGY      -598.727011401628
-------------------------   --------------------

                                *** OPTIMIZATION RUN DONE ***

                            ***************************************
                            *     ORCA property calculations      *
                            ***************************************

                                    ---------------------
                                    Active property flags
                                    ---------------------
   (+) Dipole Moment


------------------------------------------------------------------------------
                       ORCA ELECTRIC PROPERTIES CALCULATION
------------------------------------------------------------------------------

Dipole Moment Calculation                       ... on
Quadrupole Moment Calculation                   ... off
Polarizability Calculation                      ... off
GBWName                                         ... test_ts_reopt_optts_backwards_displacement_orca.gbw
Electron density file                           ... test_ts_reopt_optts_backwards_displacement_orca.scfp.tmp
The origin for moment calculation is the CENTER OF MASS  = (-0.140598, -0.103089 -1.024714)

-------------
DIPOLE MOMENT
-------------
                                X             Y             Z
Electronic contribution:      2.89581       0.00883      -3.37091
Nuclear contribution   :      0.76317       0.28737       3.50274
                        -----------------------------------------
Total Dipole Moment    :      3.65898       0.29620       0.13183
                        -----------------------------------------
Magnitude (a.u.)       :      3.67331
Magnitude (Debye)      :      9.33682



--------------------
Rotational spectrum 
--------------------
 
Rotational constants in cm-1:     1.365917     0.091769     0.087276 
Rotational constants in MHz : 40949.167758  2751.158428  2616.478359 

 Dipole components along the rotational axes: 
x,y,z [a.u.] :     3.672569    -0.073857    -0.004658 
x,y,z [Debye]:     9.334928    -0.187731    -0.011839 

 

Timings for individual modules:

Sum of individual times         ...      397.300 sec (=   6.622 min)
GTO integral calculation        ...       20.129 sec (=   0.335 min)   5.1 %
SCF iterations                  ...      267.163 sec (=   4.453 min)  67.2 %
SCF Gradient evaluation         ...      105.211 sec (=   1.754 min)  26.5 %
Geometry relaxation             ...        4.798 sec (=   0.080 min)   1.2 %
                             ****ORCA TERMINATED NORMALLY****
TOTAL RUN TIME: 0 days 0 hours 6 minutes 56 seconds 186 msec
