
                                 *****************
                                 * O   R   C   A *
                                 *****************

           --- An Ab Initio, DFT and Semiempirical electronic structure package ---

                  #######################################################
                  #                        -***-                        #
                  #          Department of theory and spectroscopy      #
                  #               Directorship: Frank Neese             #
                  #        Max Planck Institute fuer Kohlenforschung    #
                  #                Kaiser Wilhelm Platz 1               #
                  #                 D-45470 Muelheim/Ruhr               #
                  #                      Germany                        #
                  #                                                     #
                  #                  All rights reserved                #
                  #                        -***-                        #
                  #######################################################


                         Program Version 4.2.1 -  RELEASE  -


 With contributions from (in alphabetic order):
   Daniel Aravena         : Magnetic Suceptibility
   Michael Atanasov       : Ab Initio Ligand Field Theory (pilot matlab implementation)
   Alexander A. Auer      : GIAO ZORA, VPT2
   Ute Becker             : Parallelization
   Giovanni Bistoni       : ED, misc. LED, open-shell LED, HFLD
   Martin Brehm           : Molecular dynamics
   Dmytro Bykov           : SCF Hessian
   Vijay G. Chilkuri      : MRCI spin determinant printing, contributions to CSF-ICE
   Dipayan Datta          : RHF DLPNO-CCSD density
   Achintya Kumar Dutta   : EOM-CC, STEOM-CC
   Dmitry Ganyushin       : Spin-Orbit,Spin-Spin,Magnetic field MRCI
   Miquel Garcia          : C-PCM Hessian, Gaussian charge scheme
   Yang Guo               : DLPNO-NEVPT2, CIM, IAO-localization
   Andreas Hansen         : Spin unrestricted coupled pair/coupled cluster methods
   Benjamin Helmich-Paris : CASSCF linear response (MC-RPA)
   Lee Huntington         : MR-EOM, pCC
   Robert Izsak           : Overlap fitted RIJCOSX, COSX-SCS-MP3, EOM
   Christian Kollmar      : KDIIS, OOCD, Brueckner-CCSD(T), CCSD density
   Simone Kossmann        : Meta GGA functionals, TD-DFT gradient, OOMP2, MP2 Hessian
   Martin Krupicka        : AUTO-CI
   Lucas Lang             : DCDCAS
   Dagmar Lenk            : GEPOL surface, SMD
   Dimitrios Liakos       : Extrapolation schemes; Compound Job, initial MDCI parallelization
   Dimitrios Manganas     : Further ROCIS development; embedding schemes
   Dimitrios Pantazis     : SARC Basis sets
   Taras Petrenko         : DFT Hessian,TD-DFT gradient, ASA, ECA, R-Raman, ABS, FL, XAS/XES, NRVS
   Peter Pinski           : DLPNO-MP2, DLPNO-MP2 Gradient
   Christoph Reimann      : Effective Core Potentials
   Marius Retegan         : Local ZFS, SOC
   Christoph Riplinger    : Optimizer, TS searches, QM/MM, DLPNO-CCSD(T), (RO)-DLPNO pert. Triples
   Tobias Risthaus        : Range-separated hybrids, TD-DFT gradient, RPA, STAB
   Michael Roemelt        : Original ROCIS implementation
   Masaaki Saitow         : Open-shell DLPNO-CCSD energy and density
   Barbara Sandhoefer     : DKH picture change effects
   Avijit Sen             : IP-ROCIS
   Kantharuban Sivalingam : CASSCF convergence, NEVPT2, FIC-MRCI
   Bernardo de Souza      : ESD, SOC TD-DFT
   Georgi Stoychev        : AutoAux, RI-MP2 NMR
   Willem Van den Heuvel  : Paramagnetic NMR
   Boris Wezisla          : Elementary symmetry handling
   Frank Wennmohs         : Technical directorship


 We gratefully acknowledge several colleagues who have allowed us to
 interface, adapt or use parts of their codes:
   Stefan Grimme, W. Hujo, H. Kruse,             : VdW corrections, initial TS optimization,
                  C. Bannwarth                     DFT functionals, gCP, sTDA/sTD-DF
   Ed Valeev, F. Pavosevic, A. Kumar             : LibInt (2-el integral package), F12 methods
   Garnet Chan, S. Sharma, J. Yang, R. Olivares  : DMRG
   Ulf Ekstrom                                   : XCFun DFT Library
   Mihaly Kallay                                 : mrcc  (arbitrary order and MRCC methods)
   Andreas Klamt, Michael Diedenhofen            : otool_cosmo (COSMO solvation model)
   Jiri Pittner, Ondrej Demel                    : Mk-CCSD
   Frank Weinhold                                : gennbo (NPA and NBO analysis)
   Christopher J. Cramer and Donald G. Truhlar   : smd solvation model
   Lars Goerigk                                  : TD-DFT with DH, B97 family of functionals
   V. Asgeirsson, H. Jonsson                     : NEB implementation
   FAccTs GmbH                                   : IRC, NEB, NEB-TS, Multilevel, MM, QM/MM, CI optimization
   S Lehtola, MJT Oliveira, MAL Marques          : LibXC Library


 Your calculation uses the libint2 library for the computation of 2-el integrals
 For citations please refer to: http://libint.valeyev.net

 Your ORCA version has been built with support for libXC version: 4.2.3
 For citations please refer to: https://tddft.org/programs/libxc/

 This ORCA versions uses:
   CBLAS   interface :  Fast vector & matrix operations
   LAPACKE interface :  Fast linear algebra routines
   SCALAPACK package :  Parallel linear algebra routines


Your calculation utilizes the atom-pairwise dispersion correction
with the Becke-Johnson damping scheme (D3BJ)
Cite in your paper:
S.Grimme, S.Ehrlich, L.Goerigk, J Comput Chem, (2011), 32, 1456–1465 
S.Grimme, J.Antony, S.Ehrlich and H.Krieg, J.Chem.Phys., 132, (2010), 154104 
   

----- Orbital basis set information -----
Your calculation utilizes the basis: def2-SVP
   F. Weigend and R. Ahlrichs, Phys. Chem. Chem. Phys. 7, 3297 (2005).

----- AuxJ basis set information -----
Your calculation utilizes the auxiliary basis: def2/J
   F. Weigend, Phys. Chem. Chem. Phys. 8, 1057 (2006).

================================================================================
                                        WARNINGS
                       Please study these warnings very carefully!
================================================================================


INFO   : the flag for use of LIBINT has been found!

================================================================================
                                       INPUT FILE
================================================================================
NAME = ts_guess_hess_orca.inp
|  1> ! Freq PBE0 RIJCOSX D3BJ def2-SVP def2/J
|  2> %geom MaxIter 100 end
|  3> %output 
|  4> xyzfile=True 
|  5> end 
|  6> %scf 
|  7> maxiter 250 
|  8> end
|  9> %output
| 10> Print[P_Hirshfeld] = 1
| 11> end
| 12> % maxcore
| 13> 4000
| 14> *xyz -1 1
| 15> F   -2.66092000  -0.01426000   0.09700000 
| 16> Cl   1.46795000   0.05788000  -0.06166000 
| 17> C   -0.66317000  -0.01826000   0.02488000 
| 18> H   -0.78315000  -0.58679000  -0.88975000 
| 19> H   -0.70611000  -0.54149000   0.97313000 
| 20> H   -0.80305000   1.05409000   0.00503000 
| 21> *
| 22> 
| 23>                          ****END OF INPUT****
================================================================================

                       ****************************
                       * Single Point Calculation *
                       ****************************

---------------------------------
CARTESIAN COORDINATES (ANGSTROEM)
---------------------------------
  F     -2.660920   -0.014260    0.097000
  Cl     1.467950    0.057880   -0.061660
  C     -0.663170   -0.018260    0.024880
  H     -0.783150   -0.586790   -0.889750
  H     -0.706110   -0.541490    0.973130
  H     -0.803050    1.054090    0.005030

----------------------------
CARTESIAN COORDINATES (A.U.)
----------------------------
  NO LB      ZA    FRAG     MASS         X           Y           Z
   0 F     9.0000    0    18.998   -5.028410   -0.026947    0.183303
   1 Cl   17.0000    0    35.453    2.774023    0.109377   -0.116521
   2 C     6.0000    0    12.011   -1.253210   -0.034506    0.047016
   3 H     1.0000    0     1.008   -1.479939   -1.108872   -1.681384
   4 H     1.0000    0     1.008   -1.334355   -1.023268    1.838949
   5 H     1.0000    0     1.008   -1.517545    1.991941    0.009505

--------------------------------
INTERNAL COORDINATES (ANGSTROEM)
--------------------------------
 F      0   0   0     0.000000000000     0.00000000     0.00000000
 Cl     1   0   0     4.132546993332     0.00000000     0.00000000
 C      1   2   0     1.999055366142     1.12279999     0.00000000
 H      3   1   2     1.083591065947    85.46025449   245.03956750
 H      3   1   4     1.083878009280    85.97522366   240.71997608
 H      3   1   4     1.081616826515    82.49792063   120.43851113

---------------------------
INTERNAL COORDINATES (A.U.)
---------------------------
 F      0   0   0     0.000000000000     0.00000000     0.00000000
 Cl     1   0   0     7.809382052958     0.00000000     0.00000000
 C      1   2   0     3.777667168554     1.12279999     0.00000000
 H      3   1   2     2.047690355803    85.46025449   245.03956750
 H      3   1   4     2.048232600118    85.97522366   240.71997608
 H      3   1   4     2.043959583954    82.49792063   120.43851113

---------------------
BASIS SET INFORMATION
---------------------
There are 4 groups of distinct atoms

 Group   1 Type F   : 7s4p1d contracted to 3s2p1d pattern {511/31/1}
 Group   2 Type Cl  : 10s7p1d contracted to 4s3p1d pattern {5311/511/1}
 Group   3 Type C   : 7s4p1d contracted to 3s2p1d pattern {511/31/1}
 Group   4 Type H   : 4s1p contracted to 2s1p pattern {31/1}

Atom   0F    basis set group =>   1
Atom   1Cl   basis set group =>   2
Atom   2C    basis set group =>   3
Atom   3H    basis set group =>   4
Atom   4H    basis set group =>   4
Atom   5H    basis set group =>   4
---------------------------------
AUXILIARY/J BASIS SET INFORMATION
---------------------------------
There are 4 groups of distinct atoms

 Group   1 Type F   : 12s5p4d2f1g contracted to 6s4p3d1f1g pattern {711111/2111/211/2/1}
 Group   2 Type Cl  : 14s5p5d2f1g contracted to 8s4p3d1f1g pattern {71111111/2111/311/2/1}
 Group   3 Type C   : 12s5p4d2f1g contracted to 6s4p3d1f1g pattern {711111/2111/211/2/1}
 Group   4 Type H   : 5s2p1d contracted to 3s1p1d pattern {311/2/1}

Atom   0F    basis set group =>   1
Atom   1Cl   basis set group =>   2
Atom   2C    basis set group =>   3
Atom   3H    basis set group =>   4
Atom   4H    basis set group =>   4
Atom   5H    basis set group =>   4
------------------------------------------------------------------------------
                           ORCA GTO INTEGRAL CALCULATION
                           -- RI-GTO INTEGRALS CHOSEN --
------------------------------------------------------------------------------

                         BASIS SET STATISTICS AND STARTUP INFO

Gaussian basis set:
 # of primitive gaussian shells          ...   57
 # of primitive gaussian functions       ...  105
 # of contracted shells                  ...   29
 # of contracted basis functions         ...   61
 Highest angular momentum                ...    2
 Maximum contraction depth               ...    5
Auxiliary gaussian basis set:
 # of primitive gaussian shells          ...   99
 # of primitive gaussian functions       ...  265
 # of contracted shells                  ...   62
 # of contracted aux-basis functions     ...  182
 Highest angular momentum                ...    4
 Maximum contraction depth               ...    7
Ratio of auxiliary to basis functions    ...  2.98
Integral package used                  ... LIBINT
 One Electron integrals                  ... done
 Ordering auxiliary basis shells         ... done
 Integral threshhold             Thresh  ...  1.000e-10
 Primitive cut-off               TCut    ...  1.000e-11
 Pre-screening matrix                    ... done
 Shell pair data                         ... 
 Ordering of the shell pairs             ... done (   0.000 sec) 419 of 435 pairs
 Determination of significant pairs      ... done (   0.000 sec)
 Creation of shell pair data             ... done (   0.000 sec)
 Storage of shell pair data              ... done (   0.000 sec)
 Shell pair data done in (   0.000 sec)
 Computing two index integrals           ... done
 Cholesky decomposition of the V-matrix  ... done


Timings:
 Total evaluation time                   ...   0.072 sec (  0.001 min)
 One electron matrix time                ...   0.003 sec (  0.000 min) =  3.6%
 Schwartz matrix evaluation time         ...   0.048 sec (  0.001 min) = 67.2%
 Two index repulsion integral time       ...   0.001 sec (  0.000 min) =  1.2%
 Cholesky decomposition of V             ...   0.007 sec (  0.000 min) = 10.3%
 Three index repulsion integral time     ...   0.000 sec (  0.000 min) =  0.0%

-------------------------------------------------------------------------------
                                 ORCA SCF
-------------------------------------------------------------------------------

------------
SCF SETTINGS
------------
Hamiltonian:
 Density Functional     Method          .... DFT(GTOs)
 Exchange Functional    Exchange        .... PBE
   PBE kappa parameter   XKappa         ....  0.804000
   PBE mue parameter    XMuePBE         ....  0.219520
 Correlation Functional Correlation     .... PBE
   PBE beta parameter  CBetaPBE         ....  0.066725
 LDA part of GGA corr.  LDAOpt          .... PW91-LDA
 Gradients option       PostSCFGGA      .... off
 Hybrid DFT is turned on
   Fraction HF Exchange ScalHFX         ....  0.250000
   Scaling of DF-GGA-X  ScalDFX         ....  0.750000
   Scaling of DF-GGA-C  ScalDFC         ....  1.000000
   Scaling of DF-LDA-C  ScalLDAC        ....  1.000000
   Perturbative correction              ....  0.000000
   Density functional embedding theory  .... OFF
   NL short-range parameter             ....  6.900000
 RI-approximation to the Coulomb term is turned on
   Number of auxiliary basis functions  .... 182
   RIJ-COSX (HFX calculated with COS-X)).... on


General Settings:
 Integral files         IntName         .... ts_guess_hess_orca
 Hartree-Fock type      HFTyp           .... RHF
 Total Charge           Charge          ....   -1
 Multiplicity           Mult            ....    1
 Number of Electrons    NEL             ....   36
 Basis Dimension        Dim             ....   61
 Nuclear Repulsion      ENuc            ....     86.2424840948 Eh

Convergence Acceleration:
 DIIS                   CNVDIIS         .... on
   Start iteration      DIISMaxIt       ....    12
   Startup error        DIISStart       ....  0.200000
   # of expansion vecs  DIISMaxEq       ....     5
   Bias factor          DIISBfac        ....   1.050
   Max. coefficient     DIISMaxC        ....  10.000
 Newton-Raphson         CNVNR           .... off
 SOSCF                  CNVSOSCF        .... on
   Start iteration      SOSCFMaxIt      ....   150
   Startup grad/error   SOSCFStart      ....  0.003300
 Level Shifting         CNVShift        .... on
   Level shift para.    LevelShift      ....    0.2500
   Turn off err/grad.   ShiftErr        ....    0.0010
 Zerner damping         CNVZerner       .... off
 Static damping         CNVDamp         .... on
   Fraction old density DampFac         ....    0.7000
   Max. Damping (<1)    DampMax         ....    0.9800
   Min. Damping (>=0)   DampMin         ....    0.0000
   Turn off err/grad.   DampErr         ....    0.1000
 Fernandez-Rico         CNVRico         .... off

SCF Procedure:
 Maximum # iterations   MaxIter         ....   250
 SCF integral mode      SCFMode         .... Direct
   Integral package                     .... LIBINT
 Reset frequency        DirectResetFreq ....    20
 Integral Threshold     Thresh          ....  1.000e-10 Eh
 Primitive CutOff       TCut            ....  1.000e-11 Eh

Convergence Tolerance:
 Convergence Check Mode ConvCheckMode   .... Total+1el-Energy
 Convergence forced     ConvForced      .... 0
 Energy Change          TolE            ....  1.000e-06 Eh
 1-El. energy change                    ....  1.000e-03 Eh
 Orbital Gradient       TolG            ....  5.000e-05
 Orbital Rotation angle TolX            ....  5.000e-05
 DIIS Error             TolErr          ....  1.000e-06


Diagonalization of the overlap matrix:
Smallest eigenvalue                        ... 1.271e-02
Time for diagonalization                   ...    0.012 sec
Threshold for overlap eigenvalues          ... 1.000e-08
Number of eigenvalues below threshold      ... 0
Time for construction of square roots      ...    0.001 sec
Total time needed                          ...    0.013 sec

-------------------
DFT GRID GENERATION
-------------------

General Integration Accuracy     IntAcc      ...  4.340
Radial Grid Type                 RadialGrid  ... Gauss-Chebyshev
Angular Grid (max. acc.)         AngularGrid ... Lebedev-110
Angular grid pruning method      GridPruning ... 3 (G Style)
Weight generation scheme         WeightScheme... Becke
Basis function cutoff            BFCut       ...    1.0000e-10
Integration weight cutoff        WCut        ...    1.0000e-14
Grids for H and He will be reduced by one unit

# of grid points (after initial pruning)     ...   7622 (   0.0 sec)
# of grid points (after weights+screening)   ...   7432 (   0.0 sec)
nearest neighbour list constructed           ...    0.0 sec
Grid point re-assignment to atoms done       ...    0.0 sec
Grid point division into batches done        ...    0.0 sec
Reduced shell lists constructed in    0.0 sec

Total number of grid points                  ...     7432
Total number of batches                      ...      119
Average number of points per batch           ...       62
Average number of grid points per atom       ...     1239
Average number of shells per batch           ...    22.12 (76.26%)
Average number of basis functions per batch  ...    46.80 (76.72%)
Average number of large shells per batch     ...    19.02 (85.98%)
Average number of large basis fcns per batch ...    39.50 (84.40%)
Maximum spatial batch extension              ...  15.74, 26.74, 22.78 au
Average spatial batch extension              ...   4.50,  5.43,  4.88 au

Time for grid setup =    0.024 sec

------------------------------
INITIAL GUESS: MODEL POTENTIAL
------------------------------
Loading Hartree-Fock densities                     ... done
Calculating cut-offs                               ... done
Setting up the integral package                    ... done
Initializing the effective Hamiltonian             ... done
Starting the Coulomb interaction                   ... done (   0.0 sec)
Reading the grid                                   ... done
Mapping shells                                     ... done
Starting the XC term evaluation                    ... done (   0.0 sec)
  promolecular density results
     # of electrons  =     35.001224564
     EX              =    -43.250444101
     EC              =     -1.238304582
     EX+EC           =    -44.488748683
Transforming the Hamiltonian                       ... done (   0.0 sec)
Diagonalizing the Hamiltonian                      ... done (   0.0 sec)
Back transforming the eigenvectors                 ... done (   0.0 sec)
Now organizing SCF variables                       ... done
                      ------------------
                      INITIAL GUESS DONE (   0.1 sec)
                      ------------------
--------------------
COSX GRID GENERATION
--------------------

General Integration Accuracy     IntAcc      ...  3.340
Radial Grid Type                 RadialGrid  ... Gauss-Chebyshev
Angular Grid (max. acc.)         AngularGrid ... Lebedev-50
Angular grid pruning method      GridPruning ... 3 (G Style)
Weight generation scheme         WeightScheme... Becke
Basis function cutoff            BFCut       ...    1.0000e-10
Integration weight cutoff        WCut        ...    1.0000e-14
Grids for H and He will be reduced by one unit

# of grid points (after initial pruning)     ...   2826 (   0.0 sec)
# of grid points (after weights+screening)   ...   2761 (   0.0 sec)
nearest neighbour list constructed           ...    0.0 sec
Grid point re-assignment to atoms done       ...    0.0 sec
Grid point division into batches done        ...    0.0 sec
Reduced shell lists constructed in    0.0 sec

Total number of grid points                  ...     2761
Total number of batches                      ...       46
Average number of points per batch           ...       60
Average number of grid points per atom       ...      460
Average number of shells per batch           ...    23.72 (81.80%)
Average number of basis functions per batch  ...    50.79 (83.26%)
Average number of large shells per batch     ...    21.17 (89.24%)
Average number of large basis fcns per batch ...    44.91 (88.44%)
Maximum spatial batch extension              ...  15.82, 25.19, 25.19 au
Average spatial batch extension              ...   5.97,  6.85,  7.05 au

Overlap Fitting                  UseSFitting ... on
Constructing numerical overlap ... done (      0.0 sec)
Inverting numerical overlap    ... done (      0.0 sec)
Obtaining analytic overlap     ... done (      0.0 sec)
Final contraction and storage  ... done (      0.0 sec)


General Integration Accuracy     IntAcc      ...  3.670
Radial Grid Type                 RadialGrid  ... Gauss-Chebyshev
Angular Grid (max. acc.)         AngularGrid ... Lebedev-50
Angular grid pruning method      GridPruning ... 3 (G Style)
Weight generation scheme         WeightScheme... Becke
Basis function cutoff            BFCut       ...    1.0000e-10
Integration weight cutoff        WCut        ...    1.0000e-14
Grids for H and He will be reduced by one unit

# of grid points (after initial pruning)     ...   3566 (   0.0 sec)
# of grid points (after weights+screening)   ...   3482 (   0.0 sec)
nearest neighbour list constructed           ...    0.0 sec
Grid point re-assignment to atoms done       ...    0.0 sec
Grid point division into batches done        ...    0.0 sec
Reduced shell lists constructed in    0.0 sec

Total number of grid points                  ...     3482
Total number of batches                      ...       56
Average number of points per batch           ...       62
Average number of grid points per atom       ...      580
Average number of shells per batch           ...    23.60 (81.37%)
Average number of basis functions per batch  ...    50.40 (82.63%)
Average number of large shells per batch     ...    20.61 (87.36%)
Average number of large basis fcns per batch ...    43.46 (86.22%)
Maximum spatial batch extension              ...  17.12, 27.20, 27.18 au
Average spatial batch extension              ...   5.51,  6.48,  6.60 au

Overlap Fitting                  UseSFitting ... on
Constructing numerical overlap ... done (      0.0 sec)
Inverting numerical overlap    ... done (      0.0 sec)
Obtaining analytic overlap     ... done (      0.0 sec)
Final contraction and storage  ... done (      0.0 sec)


General Integration Accuracy     IntAcc      ...  4.010
Radial Grid Type                 RadialGrid  ... Gauss-Chebyshev
Angular Grid (max. acc.)         AngularGrid ... Lebedev-110
Angular grid pruning method      GridPruning ... 3 (G Style)
Weight generation scheme         WeightScheme... Becke
Basis function cutoff            BFCut       ...    1.0000e-10
Integration weight cutoff        WCut        ...    1.0000e-14
Grids for H and He will be reduced by one unit

# of grid points (after initial pruning)     ...   6574 (   0.0 sec)
# of grid points (after weights+screening)   ...   6415 (   0.0 sec)
nearest neighbour list constructed           ...    0.0 sec
Grid point re-assignment to atoms done       ...    0.0 sec
Grid point division into batches done        ...    0.0 sec
Reduced shell lists constructed in    0.0 sec

Total number of grid points                  ...     6415
Total number of batches                      ...      103
Average number of points per batch           ...       62
Average number of grid points per atom       ...     1069
Average number of shells per batch           ...    22.50 (77.59%)
Average number of basis functions per batch  ...    47.77 (78.31%)
Average number of large shells per batch     ...    19.42 (86.32%)
Average number of large basis fcns per batch ...    40.21 (84.18%)
Maximum spatial batch extension              ...  15.19, 25.31, 17.95 au
Average spatial batch extension              ...   4.86,  5.74,  5.03 au

Overlap Fitting                  UseSFitting ... on
Constructing numerical overlap ... done (      0.0 sec)
Inverting numerical overlap    ... done (      0.0 sec)
Obtaining analytic overlap     ... done (      0.0 sec)
Final contraction and storage  ... done (      0.0 sec)

Time for X-Grid setup             =    0.088 sec
--------------
SCF ITERATIONS
--------------
ITER       Energy         Delta-E        Max-DP      RMS-DP      [F,P]     Damp
               ***  Starting incremental Fock matrix formation  ***
  0   -599.2658613015   0.000000000000 0.09399370  0.00453137  0.3096545 0.7000
  1   -599.3206155432  -0.054754241699 0.05894860  0.00303758  0.1192055 0.7000
                               ***Turning on DIIS***
  2   -599.3414595990  -0.020844055830 0.11042750  0.00518524  0.0406563 0.0000
  3   -599.3767377587  -0.035278159739 0.04066368  0.00203657  0.0700471 0.0000
  4   -599.3831553555  -0.006417596790 0.01286700  0.00066501  0.0116564 0.0000
  5   -599.3836086945  -0.000453339017 0.00504776  0.00021343  0.0033080 0.0000
                      *** Initiating the SOSCF procedure ***
                           *** Shutting down DIIS ***
                      *** Re-Reading the Fockian *** 
                      *** Removing any level shift *** 
ITER      Energy       Delta-E        Grad      Rot      Max-DP    RMS-DP
  6   -599.38363813  -0.0000294330  0.000510  0.000510  0.002286  0.000114
               *** Restarting incremental Fock matrix formation ***
  7   -599.38363405   0.0000040821  0.000324  0.001244  0.001153  0.000064
  8   -599.38363249   0.0000015522  0.000560  0.000776  0.000819  0.000038
  9   -599.38363468  -0.0000021862  0.000046  0.000122  0.000230  0.000009
 10   -599.38363466   0.0000000218  0.000063  0.000076  0.000109  0.000005
                 **** Energy Check signals convergence ****
              ***Rediagonalizing the Fockian in SOSCF/NRSCF***

               *****************************************************
               *                     SUCCESS                       *
               *           SCF CONVERGED AFTER  11 CYCLES          *
               *****************************************************

Setting up the final grid:

General Integration Accuracy     IntAcc      ...  4.670
Radial Grid Type                 RadialGrid  ... Gauss-Chebyshev
Angular Grid (max. acc.)         AngularGrid ... Lebedev-302
Angular grid pruning method      GridPruning ... 3 (G Style)
Weight generation scheme         WeightScheme... Becke
Basis function cutoff            BFCut       ...    1.0000e-10
Integration weight cutoff        WCut        ...    1.0000e-14
Grids for H and He will be reduced by one unit

# of grid points (after initial pruning)     ...  29404 (   0.0 sec)
# of grid points (after weights+screening)   ...  28548 (   0.0 sec)
nearest neighbour list constructed           ...    0.0 sec
Grid point re-assignment to atoms done       ...    0.0 sec
Grid point division into batches done        ...    0.1 sec
Reduced shell lists constructed in    0.1 sec

Total number of grid points                  ...    28548
Total number of batches                      ...      448
Average number of points per batch           ...       63
Average number of grid points per atom       ...     4758
Average number of shells per batch           ...    20.18 (69.57%)
Average number of basis functions per batch  ...    42.71 (70.02%)
Average number of large shells per batch     ...    17.05 (84.51%)
Average number of large basis fcns per batch ...    34.99 (81.92%)
Maximum spatial batch extension              ...  20.69, 21.77, 25.31 au
Average spatial batch extension              ...   3.11,  3.34,  3.43 au

Final grid set up in    0.1 sec
Final integration                            ... done (   0.1 sec)
Change in XC energy                          ...     0.000622913
Integrated number of electrons               ...    36.000041926
Previous integrated no of electrons          ...    36.002049617
Old exchange energy                            =    -11.017073534 Eh
New exchange energy                            =    -11.016717764 Eh
Exchange energy change after final integration =      0.000355770 Eh
Total energy after final integration           =   -599.382656018 Eh
Final COS-X integration done in                =     0.250 sec

----------------
TOTAL SCF ENERGY
----------------

Total Energy       :         -599.38265602 Eh          -16310.03126 eV

Components:
Nuclear Repulsion  :           86.24248409 Eh            2346.77730 eV
Electronic Energy  :         -685.62514011 Eh          -18656.80856 eV
One Electron Energy:        -1009.23804722 Eh          -27462.76344 eV
Two Electron Energy:          323.61290711 Eh            8805.95489 eV

Virial components:
Potential Energy   :        -1197.07685455 Eh          -32574.11725 eV
Kinetic Energy     :          597.69419853 Eh           16264.08599 eV
Virial Ratio       :            2.00282495


DFT components:
N(Alpha)           :       18.000020963182 electrons
N(Beta)            :       18.000020963182 electrons
N(Total)           :       36.000041926364 electrons
E(X)               :      -32.910699525692 Eh       
E(C)               :       -1.291548955703 Eh       
E(XC)              :      -34.202248481394 Eh       
DFET-embed. en.    :        0.000000000000 Eh       

---------------
SCF CONVERGENCE
---------------

  Last Energy change         ...   -4.3261e-08  Tolerance :   1.0000e-06
  Last MAX-Density change    ...    2.6645e-15  Tolerance :   1.0000e-05
  Last RMS-Density change    ...    9.6924e-17  Tolerance :   1.0000e-06
  Last Orbital Gradient      ...    6.3223e-06  Tolerance :   5.0000e-05
  Last Orbital Rotation      ...    8.2855e-06  Tolerance :   5.0000e-05

             **** THE GBW FILE WAS UPDATED (ts_guess_hess_orca.gbw) ****
             **** DENSITY FILE WAS UPDATED (ts_guess_hess_orca.scfp) ****
             **** ENERGY FILE WAS UPDATED (ts_guess_hess_orca.en.tmp) ****
             **** THE GBW FILE WAS UPDATED (ts_guess_hess_orca.gbw) ****
             **** DENSITY FILE WAS UPDATED (ts_guess_hess_orca.scfp) ****
----------------
ORBITAL ENERGIES
----------------

  NO   OCC          E(Eh)            E(eV) 
   0   2.0000    -101.406781     -2759.4188 
   1   2.0000     -24.373734      -663.2430 
   2   2.0000     -10.098214      -274.7864 
   3   2.0000      -9.255918      -251.8663 
   4   2.0000      -6.994808      -190.3384 
   5   2.0000      -6.989478      -190.1934 
   6   2.0000      -6.989465      -190.1930 
   7   2.0000      -0.764521       -20.8037 
   8   2.0000      -0.583968       -15.8906 
   9   2.0000      -0.478388       -13.0176 
  10   2.0000      -0.256120        -6.9694 
  11   2.0000      -0.255334        -6.9480 
  12   2.0000      -0.152436        -4.1480 
  13   2.0000      -0.080788        -2.1984 
  14   2.0000      -0.080702        -2.1960 
  15   2.0000      -0.043214        -1.1759 
  16   2.0000      -0.042888        -1.1670 
  17   2.0000      -0.035535        -0.9670 
  18   0.0000       0.224552         6.1104 
  19   0.0000       0.267045         7.2667 
  20   0.0000       0.323335         8.7984 
  21   0.0000       0.326464         8.8835 
  22   0.0000       0.641506        17.4563 
  23   0.0000       0.641583        17.4584 
  24   0.0000       0.720113        19.5953 
  25   0.0000       0.790762        21.5177 
  26   0.0000       0.867523        23.6065 
  27   0.0000       0.869276        23.6542 
  28   0.0000       0.904519        24.6132 
  29   0.0000       0.916089        24.9280 
  30   0.0000       1.042111        28.3573 
  31   0.0000       1.042136        28.3580 
  32   0.0000       1.057534        28.7770 
  33   0.0000       1.057870        28.7861 
  34   0.0000       1.106725        30.1155 
  35   0.0000       1.120978        30.5034 
  36   0.0000       1.121223        30.5100 
  37   0.0000       1.381521        37.5931 
  38   0.0000       1.387833        37.7648 
  39   0.0000       1.441980        39.2383 
  40   0.0000       1.470863        40.0242 
  41   0.0000       1.582278        43.0560 
  42   0.0000       1.588312        43.2202 
  43   0.0000       1.670336        45.4522 
  44   0.0000       1.864049        50.7233 
  45   0.0000       1.886946        51.3464 
  46   0.0000       1.890700        51.4486 
  47   0.0000       2.146863        58.4191 
  48   0.0000       2.340306        63.6830 
  49   0.0000       2.344837        63.8063 
  50   0.0000       2.422686        65.9246 
  51   0.0000       2.506800        68.2135 
  52   0.0000       2.511032        68.3287 
  53   0.0000       3.058489        83.2257 
  54   0.0000       3.105730        84.5112 
  55   0.0000       3.107759        84.5664 
  56   0.0000       3.467160        94.3462 
  57   0.0000       3.468746        94.3894 
  58   0.0000       3.474221        94.5384 
  59   0.0000       3.475318        94.5682 
  60   0.0000       3.556554        96.7788 

                    ********************************
                    * MULLIKEN POPULATION ANALYSIS *
                    ********************************

-----------------------
MULLIKEN ATOMIC CHARGES
-----------------------
   0 F :   -0.660417
   1 Cl:   -0.583461
   2 C :    0.062379
   3 H :    0.059622
   4 H :    0.059352
   5 H :    0.062525
Sum of atomic charges:   -1.0000000

--------------------------------
MULLIKEN REDUCED ORBITAL CHARGES
--------------------------------
  0 F s       :     3.972723  s :     3.972723
      pz      :     1.984800  p :     5.687060
      px      :     1.719150
      py      :     1.983110
      dz2     :     0.000104  d :     0.000634
      dxz     :     0.000108
      dyz     :     0.000002
      dx2y2   :     0.000304
      dxy     :     0.000115
  1 Cls       :     5.974575  s :     5.974575
      pz      :     3.991141  p :    11.599420
      px      :     3.617220
      py      :     3.991059
      dz2     :     0.001554  d :     0.009466
      dxz     :     0.001633
      dyz     :     0.000029
      dx2y2   :     0.004592
      dxy     :     0.001658
  2 C s       :     3.177796  s :     3.177796
      pz      :     1.029137  p :     2.730680
      px      :     0.661445
      py      :     1.040098
      dz2     :     0.007817  d :     0.029144
      dxz     :     0.001520
      dyz     :     0.006300
      dx2y2   :     0.011942
      dxy     :     0.001566
  3 H s       :     0.916018  s :     0.916018
      pz      :     0.011596  p :     0.024360
      px      :     0.005476
      py      :     0.007287
  4 H s       :     0.916378  s :     0.916378
      pz      :     0.012176  p :     0.024270
      px      :     0.005225
      py      :     0.006869
  5 H s       :     0.912716  s :     0.912716
      pz      :     0.004542  p :     0.024760
      px      :     0.005978
      py      :     0.014240


                     *******************************
                     * LOEWDIN POPULATION ANALYSIS *
                     *******************************

----------------------
LOEWDIN ATOMIC CHARGES
----------------------
   0 F :   -0.624222
   1 Cl:   -0.439191
   2 C :    0.023739
   3 H :    0.013250
   4 H :    0.013292
   5 H :    0.013131

-------------------------------
LOEWDIN REDUCED ORBITAL CHARGES
-------------------------------
  0 F s       :     3.929269  s :     3.929269
      pz      :     1.983705  p :     5.694227
      px      :     1.728232
      py      :     1.982290
      dz2     :     0.000128  d :     0.000726
      dxz     :     0.000105
      dyz     :     0.000003
      dx2y2   :     0.000375
      dxy     :     0.000114
  1 Cls       :     5.896995  s :     5.896995
      pz      :     3.979848  p :    11.532604
      px      :     3.572981
      py      :     3.979775
      dz2     :     0.001727  d :     0.009592
      dxz     :     0.001349
      dyz     :     0.000029
      dx2y2   :     0.005108
      dxy     :     0.001379
  2 C s       :     2.960627  s :     2.960627
      pz      :     1.096436  p :     2.947805
      px      :     0.749836
      py      :     1.101534
      dz2     :     0.018734  d :     0.067828
      dxz     :     0.002893
      dyz     :     0.015753
      dx2y2   :     0.027270
      dxy     :     0.003177
  3 H s       :     0.915115  s :     0.915115
      pz      :     0.036195  p :     0.071635
      px      :     0.014390
      py      :     0.021050
  4 H s       :     0.915250  s :     0.915250
      pz      :     0.038192  p :     0.071457
      px      :     0.013649
      py      :     0.019616
  5 H s       :     0.913920  s :     0.913920
      pz      :     0.011552  p :     0.072949
      px      :     0.015492
      py      :     0.045905


                      *****************************
                      * MAYER POPULATION ANALYSIS *
                      *****************************

  NA   - Mulliken gross atomic population
  ZA   - Total nuclear charge
  QA   - Mulliken gross atomic charge
  VA   - Mayer's total valence
  BVA  - Mayer's bonded valence
  FA   - Mayer's free valence

  ATOM       NA         ZA         QA         VA         BVA        FA
  0 F      9.6604     9.0000    -0.6604     0.5743     0.5743    -0.0000
  1 Cl    17.5835    17.0000    -0.5835     0.6507     0.6507     0.0000
  2 C      5.9376     6.0000     0.0624     3.9121     3.9121     0.0000
  3 H      0.9404     1.0000     0.0596     1.0085     1.0085    -0.0000
  4 H      0.9406     1.0000     0.0594     1.0073     1.0073     0.0000
  5 H      0.9375     1.0000     0.0625     1.0149     1.0149    -0.0000

  Mayer bond orders larger than 0.100000
B(  0-F ,  2-C ) :   0.4250 B(  1-Cl,  2-C ) :   0.5356 B(  2-C ,  3-H ) :   0.9843 
B(  2-C ,  4-H ) :   0.9844 B(  2-C ,  5-H ) :   0.9828 


------------------
HIRSHFELD ANALYSIS
------------------

Total integrated alpha density =     18.001024809
Total integrated beta density  =     18.001024809

  ATOM     CHARGE      SPIN    
   0 F   -0.595388    0.000000
   1 Cl  -0.498295    0.000000
   2 C    0.002845    0.000000
   3 H    0.029376    0.000000
   4 H    0.029740    0.000000
   5 H    0.029674    0.000000

  TOTAL  -1.002050    0.000000

-------
TIMINGS
-------

Total SCF time: 0 days 0 hours 0 min 3 sec 

Total time                  ....       3.115 sec
Sum of individual times     ....       3.050 sec  ( 97.9%)

Fock matrix formation       ....       2.718 sec  ( 87.2%)
  Split-RI-J                ....       0.709 sec  ( 26.1% of F)
  Chain of spheres X        ....       1.744 sec  ( 64.2% of F)
  COS-X 1 center corr.      ....       0.000 sec  (  0.0% of F)
  XC integration            ....       0.252 sec  (  9.3% of F)
    Basis function eval.    ....       0.085 sec  ( 33.7% of XC)
    Density eval.           ....       0.051 sec  ( 20.2% of XC)
    XC-Functional eval.     ....       0.042 sec  ( 16.7% of XC)
    XC-Potential eval.      ....       0.062 sec  ( 24.7% of XC)
Diagonalization             ....       0.002 sec  (  0.1%)
Density matrix formation    ....       0.000 sec  (  0.0%)
Population analysis         ....       0.014 sec  (  0.4%)
Initial guess               ....       0.075 sec  (  2.4%)
Orbital Transformation      ....       0.000 sec  (  0.0%)
Orbital Orthonormalization  ....       0.000 sec  (  0.0%)
DIIS solution               ....       0.001 sec  (  0.0%)
SOSCF solution              ....       0.003 sec  (  0.1%)
Grid generation             ....       0.236 sec  (  7.6%)


-------------------------------------------------------------------------------
                          DFT DISPERSION CORRECTION                            
                                                                               
                              DFTD3 V3.1  Rev 1                                
                          USING Becke-Johnson damping                          
-------------------------------------------------------------------------------
The PBE0 functional is recognized
Active option DFTDOPT                   ...         4   

molecular C6(AA) [au] = 484.493446 


            DFT-D V3
 parameters
 s6 scaling factor         :     1.0000 
 a1 scaling factor         :     0.4145 
 s8 scaling factor         :     1.2177 
 a2 scaling factor         :     4.8593 
 ad hoc parameters k1-k3   :    16.0000     1.3333    -4.0000 

 Edisp/kcal,au: -1.509021867806  -0.002404779161 
 E6   /kcal   :  -0.953481518 
 E8   /kcal   :  -0.555540349 
 % E8         :  36.814598996 

-------------------------   ----------------
Dispersion correction           -0.002404779
-------------------------   ----------------


-------------------------   --------------------
FINAL SINGLE POINT ENERGY      -599.385060797321
-------------------------   --------------------


                            ***************************************
                            *     ORCA property calculations      *
                            ***************************************

                                    ---------------------
                                    Active property flags
                                    ---------------------
   (+) Dipole Moment


------------------------------------------------------------------------------
                       ORCA ELECTRIC PROPERTIES CALCULATION
------------------------------------------------------------------------------

Dipole Moment Calculation                       ... on
Quadrupole Moment Calculation                   ... off
Polarizability Calculation                      ... off
GBWName                                         ... ts_guess_hess_orca.gbw
Electron density file                           ... ts_guess_hess_orca.scfp
The origin for moment calculation is the CENTER OF MASS  = (-0.238913,  0.040440  0.001216)

-------------
DIPOLE MOMENT
-------------
                                X             Y             Z
Electronic contribution:      2.67249       0.13328      -0.11335
Nuclear contribution   :     -1.58645      -0.14576       0.07548
                        -----------------------------------------
Total Dipole Moment    :      1.08604      -0.01248      -0.03787
                        -----------------------------------------
Magnitude (a.u.)       :      1.08677
Magnitude (Debye)      :      2.76236



--------------------
Rotational spectrum 
--------------------
 
Rotational constants in cm-1:     4.770094     0.076974     0.076964 
Rotational constants in MHz : 143003.828078  2307.618496  2307.326384 

 Dipole components along the rotational axes: 
x,y,z [a.u.] :     1.086267    -0.033189     0.001602 
x,y,z [Debye]:     2.761070    -0.084361     0.004071 

 

-------------------------------------------------------------------------------
                               ORCA SCF HESSIAN
-------------------------------------------------------------------------------

Hessian of the Kohn-Sham DFT energy:
Kohn-Sham wavefunction type                      ... RKS
Hartree-Fock exchange scaling                    ...    0.250
Number of operators                              ...    1
Number of atoms                                  ...    6
Basis set dimensions                             ...   61
Integral neglect threshold                       ... 1.0e-10
Integral primitive cutoff                        ... 1.0e-11

Setting up DFT Hessian calculations              ... 
Electron density on the grid                     ... found on disk
Electron density on the final grid               ... found on disk
Building xc-kernel on the grid                   ... done   (      0.0 sec)
Building xc-kernel on the final grid             ... done   (      0.0 sec)
                                                     done   (      0.0 sec)

Nuclear repulsion Hessian                        ... done   (      0.0 sec)

----------------------------------------------
Forming right-hand sides of CP-SCF equations     ...
----------------------------------------------
One electron integral derivatives                ... done   (      0.1 sec)
Transforming the overlap derivative matrices     ... done   (      0.0 sec)
Making the Q(x) pseudodensities                  ... done   (      0.0 sec)
Adding the E*S(x)*S(y) terms to the Hessian      ... done   (      0.0 sec)
Calculating energy weighted overlap derivatives  ... done   (      0.0 sec)
Two electron integral derivatives (RI)           ... done   (      0.5 sec)
Exchange-correlation integral derivatives        ... done   (      1.6 sec)
tr(F(y)Q(x)) contribution to the Hessian         ... done   (      0.0 sec)
Response fock operator R(S(x)) (RIJCOSX)         ... done   (      0.6 sec)
XC Response fock operator R(S(x))                ... done   (      0.4 sec)
tr(F(y)S(x)) contribution to the Hessian         ... done   (      0.0 sec)
Transforming and finalizing RHSs                 ... done   (      0.0 sec)

----------------------------------------------
Solving the CP-SCF equations (RIJCOSX)           ...
----------------------------------------------
     CP-SCF ITERATION   0: 
     CP-SCF ITERATION   1:      0.000625513055
     CP-SCF ITERATION   2:      0.000102753955
     CP-SCF ITERATION   3:      0.000004684816
     CP-SCF ITERATION   4:      0.000000977611

                                                 ... done   (      2.2 sec)
Forming perturbed density Hessian contributions  ... done   (      0.0 sec)
2nd integral derivative contribs (RI)            ... done   (      2.5 sec)
Exchange-correlation Hessian                     ... done   (      2.0 sec)
Dispersion correction in the Hessian             ... done   (      0.8 sec)
Dipol derivatives                                ... done   (      0.1 sec)

Total SCF Hessian time: 0 days 0 hours 0 min 10 sec 

Writing the Hessian file to the disk             ... done


Maximum memory used throughout the entire calculation: 132.2 MB

-----------------------
VIBRATIONAL FREQUENCIES
-----------------------

Scaling factor for frequencies =  1.000000000  (already applied!)

   0:         0.00 cm**-1
   1:         0.00 cm**-1
   2:         0.00 cm**-1
   3:         0.00 cm**-1
   4:         0.00 cm**-1
   5:         0.00 cm**-1
   6:      -463.20 cm**-1 ***imaginary mode***
   7:       245.40 cm**-1
   8:       250.62 cm**-1
   9:       290.71 cm**-1
  10:       883.87 cm**-1
  11:       887.53 cm**-1
  12:      1001.14 cm**-1
  13:      1335.46 cm**-1
  14:      1344.48 cm**-1
  15:      3177.73 cm**-1
  16:      3386.50 cm**-1
  17:      3403.93 cm**-1


------------
NORMAL MODES
------------

These modes are the Cartesian displacements weighted by the diagonal matrix
M(i,i)=1/sqrt(m[i]) where m[i] is the mass of the displaced atom
Thus, these vectors are normalized but *not* orthogonal

                  0          1          2          3          4          5    
      0       0.000000   0.000000   0.000000   0.000000   0.000000   0.000000
      1       0.000000   0.000000   0.000000   0.000000   0.000000   0.000000
      2       0.000000   0.000000   0.000000   0.000000   0.000000   0.000000
      3       0.000000   0.000000   0.000000   0.000000   0.000000   0.000000
      4       0.000000   0.000000   0.000000   0.000000   0.000000   0.000000
      5       0.000000   0.000000   0.000000   0.000000   0.000000   0.000000
      6       0.000000   0.000000   0.000000   0.000000   0.000000   0.000000
      7       0.000000   0.000000   0.000000   0.000000   0.000000   0.000000
      8       0.000000   0.000000   0.000000   0.000000   0.000000   0.000000
      9       0.000000   0.000000   0.000000   0.000000   0.000000   0.000000
     10       0.000000   0.000000   0.000000   0.000000   0.000000   0.000000
     11       0.000000   0.000000   0.000000   0.000000   0.000000   0.000000
     12       0.000000   0.000000   0.000000   0.000000   0.000000   0.000000
     13       0.000000   0.000000   0.000000   0.000000   0.000000   0.000000
     14       0.000000   0.000000   0.000000   0.000000   0.000000   0.000000
     15       0.000000   0.000000   0.000000   0.000000   0.000000   0.000000
     16       0.000000   0.000000   0.000000   0.000000   0.000000   0.000000
     17       0.000000   0.000000   0.000000   0.000000   0.000000   0.000000
                  6          7          8          9         10         11    
      0       0.274248  -0.006520  -0.004152   0.808417  -0.000473  -0.003474
      1      -0.009555  -0.001042   0.195145   0.022561  -0.003338  -0.008435
      2      -0.008180  -0.192917  -0.000943  -0.031300  -0.008147   0.003411
      3       0.117719  -0.003082   0.004338  -0.513885   0.000532  -0.000996
      4       0.001536  -0.000459   0.093705  -0.005924   0.004898   0.012213
      5      -0.004236  -0.092282  -0.000723   0.019699   0.012321  -0.004868
      6      -0.839902   0.014546  -0.009737   0.211539   0.000498   0.008768
      7       0.000776   0.002337  -0.462005  -0.013374  -0.013740  -0.034302
      8       0.029423   0.455720   0.003053  -0.007795  -0.034364   0.013285
      9       0.201144  -0.085851   0.073920   0.100898  -0.805853  -0.137585
     10      -0.014503   0.069339  -0.498660  -0.016150  -0.010726   0.049627
     11      -0.089247   0.441515   0.006114   0.007024   0.067956  -0.019535
     12       0.186718   0.122598   0.068839   0.091858   0.512523  -0.626063
     13      -0.009507  -0.066500  -0.481532  -0.015852   0.042247   0.028941
     14       0.062563   0.436774   0.003804  -0.013062   0.018769   0.020041
     15       0.310937   0.021208  -0.101055   0.124366   0.277597   0.759666
     16       0.140840   0.005082  -0.488402  -0.025519   0.022867   0.059598
     17      -0.020750   0.573152  -0.003093  -0.004002   0.042941  -0.051858
                 12         13         14         15         16         17    
      0       0.045176  -0.000059  -0.000494  -0.000044   0.000020   0.000042
      1      -0.000016  -0.000083  -0.001302  -0.000054  -0.000021   0.000755
      2      -0.001515   0.001214  -0.000060   0.000011   0.000765   0.000016
      3       0.027127   0.000034   0.000097  -0.000039   0.000018  -0.000026
      4       0.001104  -0.000012  -0.000131  -0.000005  -0.000011   0.000411
      5      -0.001269   0.000269  -0.000021   0.000003   0.000394   0.000011
      6      -0.007071  -0.003724  -0.001512   0.012390  -0.004497   0.003873
      7       0.000857   0.005566   0.091239   0.004478   0.002660  -0.103286
      8       0.000415  -0.091956   0.005649  -0.001147  -0.102978  -0.002859
      9      -0.564972   0.088985  -0.019550  -0.060998   0.074752   0.045790
     10       0.010721  -0.429021  -0.534888  -0.307277   0.363094   0.212764
     11       0.062186   0.170955   0.391116  -0.498985   0.577943   0.354029
     12      -0.585266  -0.083840  -0.036743  -0.019458  -0.027541   0.013390
     13       0.007392   0.337312  -0.619004  -0.286055  -0.349114   0.160837
     14      -0.017249   0.093364  -0.382913   0.522775   0.627058  -0.304801
     15      -0.571045   0.039141   0.080201  -0.064973   0.005373  -0.105209
     16      -0.066844   0.027377   0.095861   0.541174  -0.044900   0.828453
     17       0.023304   0.799054  -0.073622  -0.010417  -0.006239  -0.015846


-----------
IR SPECTRUM
-----------

 Mode    freq (cm**-1)   T**2         TX         TY         TZ
-------------------------------------------------------------------
   7:       245.40   15.963571  (  0.013634   0.023228   3.995353)
   8:       250.62   17.076212  ( -0.751525  -4.063136   0.048441)
   9:       290.71    0.150424  (  0.384781  -0.046189  -0.015289)
  10:       883.87    0.203656  (  0.183720   0.228150   0.343294)
  11:       887.53    0.902929  (  0.764117   0.543343  -0.154378)
  12:      1001.14    1.681467  (  1.296084  -0.010264  -0.039089)
  13:      1335.46    5.565941  (  0.133725  -0.146198   2.350890)
  14:      1344.48    5.732113  (  0.159882  -2.384466  -0.144480)
  15:      3177.73    1.449203  (  1.150687   0.341433  -0.092443)
  16:      3386.50    1.932534  ( -0.049880   0.037849  -1.388745)
  17:      3403.93    1.115094  ( -0.037831  -1.054988  -0.025739)

The first frequency considered to be a vibration is 7
The total number of vibrations considered is 11


--------------------------
THERMOCHEMISTRY AT 298.15K
--------------------------

Temperature         ... 298.15 K
Pressure            ... 1.00 atm
Total Mass          ... 69.49 AMU

Throughout the following assumptions are being made:
  (1) The electronic state is orbitally nondegenerate
  (2) There are no thermally accessible electronically excited states
  (3) Hindered rotations indicated by low frequency modes are not
      treated as such but are treated as vibrations and this may
      cause some error
  (4) All equations used are the standard statistical mechanics
      equations for an ideal gas
  (5) All vibrations are strictly harmonic

freq.     245.40  E(vib)   ...       0.31 
freq.     250.62  E(vib)   ...       0.30 
freq.     290.71  E(vib)   ...       0.27 
freq.     883.87  E(vib)   ...       0.04 
freq.     887.53  E(vib)   ...       0.04 
freq.    1001.14  E(vib)   ...       0.02 
freq.    1335.46  E(vib)   ...       0.01 
freq.    1344.48  E(vib)   ...       0.01 
freq.    3177.73  E(vib)   ...       0.00 
freq.    3386.50  E(vib)   ...       0.00 
freq.    3403.93  E(vib)   ...       0.00 

------------
INNER ENERGY
------------

The inner energy is: U= E(el) + E(ZPE) + E(vib) + E(rot) + E(trans)
    E(el)   - is the total energy from the electronic structure calculation
              = E(kin-el) + E(nuc-el) + E(el-el) + E(nuc-nuc)
    E(ZPE)  - the the zero temperature vibrational energy from the frequency calculation
    E(vib)  - the the finite temperature correction to E(ZPE) due to population
              of excited vibrational states
    E(rot)  - is the rotational thermal energy
    E(trans)- is the translational thermal energy

Summary of contributions to the inner energy U:
Electronic energy                ...   -599.38506080 Eh
Zero point energy                ...      0.03692309 Eh      23.17 kcal/mol
Thermal vibrational correction   ...      0.00158024 Eh       0.99 kcal/mol
Thermal rotational correction    ...      0.00141627 Eh       0.89 kcal/mol
Thermal translational correction ...      0.00141627 Eh       0.89 kcal/mol
-----------------------------------------------------------------------
Total thermal energy                   -599.34372492 Eh


Summary of corrections to the electronic energy:
(perhaps to be used in another calculation)
Total thermal correction                  0.00441278 Eh       2.77 kcal/mol
Non-thermal (ZPE) correction              0.03692309 Eh      23.17 kcal/mol
-----------------------------------------------------------------------
Total correction                          0.04133587 Eh      25.94 kcal/mol


--------
ENTHALPY
--------

The enthalpy is H = U + kB*T
                kB is Boltzmann's constant
Total free energy                 ...   -599.34372492 Eh 
Thermal Enthalpy correction       ...      0.00094421 Eh       0.59 kcal/mol
-----------------------------------------------------------------------
Total Enthalpy                    ...   -599.34278072 Eh


Note: Only C1 symmetry has been detected, increase convergence thresholds 
      if your molecule has a higher symmetry. Symmetry factor of 1.0 is   
      used for the rotational entropy correction. 
 

Note: Rotational entropy computed according to Herzberg 
Infrared and Raman Spectra, Chapter V,1, Van Nostrand Reinhold, 1945 
Point Group:  C1, Symmetry Number:   1  
Rotational constants in cm-1:     4.770094     0.076974     0.076964 

Vibrational entropy computed according to the QRRHO of S. Grimme
Chem.Eur.J. 2012 18 9955


-------
ENTROPY
-------

The entropy contributions are T*S = T*(S(el)+S(vib)+S(rot)+S(trans))
     S(el)   - electronic entropy
     S(vib)  - vibrational entropy
     S(rot)  - rotational entropy
     S(trans)- translational entropy
The entropies will be listed as mutliplied by the temperature to get
units of energy

Electronic entropy                ...      0.00000000 Eh      0.00 kcal/mol
Vibrational entropy               ...      0.00257046 Eh      1.61 kcal/mol
Rotational entropy                ...      0.01119444 Eh      7.02 kcal/mol
Translational entropy             ...      0.01835566 Eh     11.52 kcal/mol
-----------------------------------------------------------------------
Final entropy term                ...      0.03212056 Eh     20.16 kcal/mol

In case the symmetry of your molecule has not been determined correctly
or in case you have a reason to use a different symmetry number we print 
out the resulting rotational entropy values for sn=1,12 :
 --------------------------------------------------------
|  sn= 1 | S(rot)=       0.01119444 Eh      7.02 kcal/mol|
|  sn= 2 | S(rot)=       0.01053999 Eh      6.61 kcal/mol|
|  sn= 3 | S(rot)=       0.01015716 Eh      6.37 kcal/mol|
|  sn= 4 | S(rot)=       0.00988553 Eh      6.20 kcal/mol|
|  sn= 5 | S(rot)=       0.00967484 Eh      6.07 kcal/mol|
|  sn= 6 | S(rot)=       0.00950270 Eh      5.96 kcal/mol|
|  sn= 7 | S(rot)=       0.00935715 Eh      5.87 kcal/mol|
|  sn= 8 | S(rot)=       0.00923108 Eh      5.79 kcal/mol|
|  sn= 9 | S(rot)=       0.00911987 Eh      5.72 kcal/mol|
|  sn=10 | S(rot)=       0.00902039 Eh      5.66 kcal/mol|
|  sn=11 | S(rot)=       0.00893040 Eh      5.60 kcal/mol|
|  sn=12 | S(rot)=       0.00884824 Eh      5.55 kcal/mol|
 --------------------------------------------------------


-------------------
GIBBS FREE ENERGY
-------------------

The Gibbs free energy is G = H - T*S

Total enthalpy                    ...   -599.34278072 Eh 
Total entropy correction          ...     -0.03212056 Eh    -20.16 kcal/mol
-----------------------------------------------------------------------
Final Gibbs free energy         ...   -599.37490127 Eh

For completeness - the Gibbs free energy minus the electronic energy
G-E(el)                           ...      0.01015952 Eh      6.38 kcal/mol


Timings for individual modules:

Sum of individual times         ...       14.261 sec (=   0.238 min)
GTO integral calculation        ...        0.093 sec (=   0.002 min)   0.7 %
SCF iterations                  ...        3.138 sec (=   0.052 min)  22.0 %
Analytical frequency calculation...       11.029 sec (=   0.184 min)  77.3 %
                             ****ORCA TERMINATED NORMALLY****
TOTAL RUN TIME: 0 days 0 hours 0 minutes 14 seconds 412 msec
