
                                 *****************
                                 * O   R   C   A *
                                 *****************

           --- An Ab Initio, DFT and Semiempirical electronic structure package ---

                  #######################################################
                  #                        -***-                        #
                  #          Department of theory and spectroscopy      #
                  #               Directorship: Frank Neese             #
                  #        Max Planck Institute fuer Kohlenforschung    #
                  #                Kaiser Wilhelm Platz 1               #
                  #                 D-45470 Muelheim/Ruhr               #
                  #                      Germany                        #
                  #                                                     #
                  #                  All rights reserved                #
                  #                        -***-                        #
                  #######################################################


                         Program Version 4.2.1 -  RELEASE  -


 With contributions from (in alphabetic order):
   Daniel Aravena         : Magnetic Suceptibility
   Michael Atanasov       : Ab Initio Ligand Field Theory (pilot matlab implementation)
   Alexander A. Auer      : GIAO ZORA, VPT2
   Ute Becker             : Parallelization
   Giovanni Bistoni       : ED, misc. LED, open-shell LED, HFLD
   Martin Brehm           : Molecular dynamics
   Dmytro Bykov           : SCF Hessian
   Vijay G. Chilkuri      : MRCI spin determinant printing, contributions to CSF-ICE
   Dipayan Datta          : RHF DLPNO-CCSD density
   Achintya Kumar Dutta   : EOM-CC, STEOM-CC
   Dmitry Ganyushin       : Spin-Orbit,Spin-Spin,Magnetic field MRCI
   Miquel Garcia          : C-PCM Hessian, Gaussian charge scheme
   Yang Guo               : DLPNO-NEVPT2, CIM, IAO-localization
   Andreas Hansen         : Spin unrestricted coupled pair/coupled cluster methods
   Benjamin Helmich-Paris : CASSCF linear response (MC-RPA)
   Lee Huntington         : MR-EOM, pCC
   Robert Izsak           : Overlap fitted RIJCOSX, COSX-SCS-MP3, EOM
   Christian Kollmar      : KDIIS, OOCD, Brueckner-CCSD(T), CCSD density
   Simone Kossmann        : Meta GGA functionals, TD-DFT gradient, OOMP2, MP2 Hessian
   Martin Krupicka        : AUTO-CI
   Lucas Lang             : DCDCAS
   Dagmar Lenk            : GEPOL surface, SMD
   Dimitrios Liakos       : Extrapolation schemes; Compound Job, initial MDCI parallelization
   Dimitrios Manganas     : Further ROCIS development; embedding schemes
   Dimitrios Pantazis     : SARC Basis sets
   Taras Petrenko         : DFT Hessian,TD-DFT gradient, ASA, ECA, R-Raman, ABS, FL, XAS/XES, NRVS
   Peter Pinski           : DLPNO-MP2, DLPNO-MP2 Gradient
   Christoph Reimann      : Effective Core Potentials
   Marius Retegan         : Local ZFS, SOC
   Christoph Riplinger    : Optimizer, TS searches, QM/MM, DLPNO-CCSD(T), (RO)-DLPNO pert. Triples
   Tobias Risthaus        : Range-separated hybrids, TD-DFT gradient, RPA, STAB
   Michael Roemelt        : Original ROCIS implementation
   Masaaki Saitow         : Open-shell DLPNO-CCSD energy and density
   Barbara Sandhoefer     : DKH picture change effects
   Avijit Sen             : IP-ROCIS
   Kantharuban Sivalingam : CASSCF convergence, NEVPT2, FIC-MRCI
   Bernardo de Souza      : ESD, SOC TD-DFT
   Georgi Stoychev        : AutoAux, RI-MP2 NMR
   Willem Van den Heuvel  : Paramagnetic NMR
   Boris Wezisla          : Elementary symmetry handling
   Frank Wennmohs         : Technical directorship


 We gratefully acknowledge several colleagues who have allowed us to
 interface, adapt or use parts of their codes:
   Stefan Grimme, W. Hujo, H. Kruse,             : VdW corrections, initial TS optimization,
                  C. Bannwarth                     DFT functionals, gCP, sTDA/sTD-DF
   Ed Valeev, F. Pavosevic, A. Kumar             : LibInt (2-el integral package), F12 methods
   Garnet Chan, S. Sharma, J. Yang, R. Olivares  : DMRG
   Ulf Ekstrom                                   : XCFun DFT Library
   Mihaly Kallay                                 : mrcc  (arbitrary order and MRCC methods)
   Andreas Klamt, Michael Diedenhofen            : otool_cosmo (COSMO solvation model)
   Jiri Pittner, Ondrej Demel                    : Mk-CCSD
   Frank Weinhold                                : gennbo (NPA and NBO analysis)
   Christopher J. Cramer and Donald G. Truhlar   : smd solvation model
   Lars Goerigk                                  : TD-DFT with DH, B97 family of functionals
   V. Asgeirsson, H. Jonsson                     : NEB implementation
   FAccTs GmbH                                   : IRC, NEB, NEB-TS, Multilevel, MM, QM/MM, CI optimization
   S Lehtola, MJT Oliveira, MAL Marques          : LibXC Library


 Your calculation uses the libint2 library for the computation of 2-el integrals
 For citations please refer to: http://libint.valeyev.net

 Your ORCA version has been built with support for libXC version: 4.2.3
 For citations please refer to: https://tddft.org/programs/libxc/

 This ORCA versions uses:
   CBLAS   interface :  Fast vector & matrix operations
   LAPACKE interface :  Fast linear algebra routines
   SCALAPACK package :  Parallel linear algebra routines


Your calculation utilizes the atom-pairwise dispersion correction
with the Becke-Johnson damping scheme (D3BJ)
Cite in your paper:
S.Grimme, S.Ehrlich, L.Goerigk, J Comput Chem, (2011), 32, 1456–1465 
S.Grimme, J.Antony, S.Ehrlich and H.Krieg, J.Chem.Phys., 132, (2010), 154104 
   

----- Orbital basis set information -----
Your calculation utilizes the basis: def2-SVP
   F. Weigend and R. Ahlrichs, Phys. Chem. Chem. Phys. 7, 3297 (2005).

----- AuxJ basis set information -----
Your calculation utilizes the auxiliary basis: def2/J
   F. Weigend, Phys. Chem. Chem. Phys. 8, 1057 (2006).

================================================================================
                                        WARNINGS
                       Please study these warnings very carefully!
================================================================================


WARNING: Geometry Optimization
  ===> : Switching off AutoStart
         For restart on a previous wavefunction, please use MOREAD

INFO   : the flag for use of LIBINT has been found!

================================================================================
                                       INPUT FILE
================================================================================
NAME = ts_guess_hess_forwards_orca.inp
|  1> ! Opt PBE0 RIJCOSX D3BJ def2-SVP def2/J
|  2> %geom MaxIter 100 end
|  3> %pal nprocs 4
|  4> end
|  5> %output 
|  6> xyzfile=True 
|  7> end 
|  8> %scf 
|  9> maxiter 250 
| 10> end
| 11> %output
| 12> Print[P_Hirshfeld] = 1
| 13> end
| 14> % maxcore
| 15> 4000
| 16> *xyz -1 1
| 17> F   -2.38667200  -0.02381500   0.08882000 
| 18> Cl   1.58566900   0.05941600  -0.06589600 
| 19> C   -1.50307200  -0.01748400   0.05430300 
| 20> H   -0.58200600  -0.60129300  -0.97899700 
| 21> H   -0.51939200  -0.55099700   1.03569300 
| 22> H   -0.49211300   1.19493000  -0.01572000 
| 23> *
| 24> 
| 25>                          ****END OF INPUT****
================================================================================

                       *****************************
                       * Geometry Optimization Run *
                       *****************************

Geometry optimization settings:
Update method            Update   .... BFGS
Choice of coordinates    CoordSys .... Z-matrix Internals
Initial Hessian          InHess   .... Almoef's Model

Convergence Tolerances:
Energy Change            TolE     ....  5.0000e-06 Eh
Max. Gradient            TolMAXG  ....  3.0000e-04 Eh/bohr
RMS Gradient             TolRMSG  ....  1.0000e-04 Eh/bohr
Max. Displacement        TolMAXD  ....  4.0000e-03 bohr
RMS Displacement         TolRMSD  ....  2.0000e-03 bohr
Strict Convergence                ....  False
------------------------------------------------------------------------------
                        ORCA OPTIMIZATION COORDINATE SETUP
------------------------------------------------------------------------------

The optimization will be done in new redundant internal coordinates
Making redundant internal coordinates   ...  (new redundants) done
Evaluating the initial hessian          ...  (Almloef) done
Evaluating the coordinates              ...  done
Calculating the B-matrix                .... done
Calculating the G-matrix                .... done
Diagonalizing the G-matrix              .... done
The first mode is                       ....   53
The number of degrees of freedom        ....   12

    -----------------------------------------------------------------
                    Redundant Internal Coordinates


    -----------------------------------------------------------------
         Definition                    Initial Value    Approx d2E/dq
    -----------------------------------------------------------------
      1. B(C   2,F   0)                  0.8843         3.332608   
      2. B(H   3,Cl  1)                  2.4432         0.005604   
      3. B(H   3,C   2)                  1.5023         0.079182   
      4. B(H   4,C   2)                  1.4884         0.083324   
      5. B(H   4,Cl  1)                  2.4530         0.005405   
      6. B(H   5,H   4)                  2.0383         0.002116   
      7. B(H   5,H   3)                  2.0402         0.002101   
      8. B(H   5,Cl  1)                  2.3684         0.007377   
      9. B(H   5,C   2)                  1.5802         0.059486   
     10. A(H   3,Cl  1,H   5)           50.1480         0.127080   
     11. A(H   3,Cl  1,H   4)           48.6362         0.124491   
     12. A(H   4,Cl  1,H   5)           49.9790         0.126769   
     13. A(H   3,C   2,H   4)           84.7801         0.191861   
     14. A(H   4,C   2,H   5)           83.1896         0.185413   
     15. A(H   3,C   2,H   5)           82.8445         0.184307   
     16. A(F   0,C   2,H   4)          129.2027         0.362450   
     17. A(F   0,C   2,H   3)          129.5452         0.359311   
     18. A(F   0,C   2,H   5)          130.2785         0.342367   
     19. A(C   2,H   3,H   5)           50.2175         0.124758   
     20. A(Cl  1,H   3,H   5)           63.0223         0.110213   
     21. A(Cl  1,H   3,C   2)          100.4756         0.149320   
     22. A(Cl  1,H   4,H   5)           62.8523         0.110074   
     23. A(Cl  1,H   4,C   2)          100.4774         0.149522   
     24. A(C   2,H   4,H   5)           50.3341         0.125232   
     25. A(H   3,H   5,H   4)           59.2573         0.101596   
     26. A(C   2,H   5,H   4)           46.4763         0.122571   
     27. A(Cl  1,H   5,H   4)           67.1686         0.111611   
     28. A(Cl  1,H   5,H   3)           66.8296         0.111575   
     29. A(Cl  1,H   5,C   2)          101.2071         0.149168   
     30. A(C   2,H   5,H   3)           46.9380         0.122517   
     31. D(H   5,H   3,C   2,F   0)    137.8439         0.005440   
     32. D(Cl  1,H   3,C   2,F   0)    178.8819         0.005440   
     33. D(C   2,H   3,Cl  1,H   5)    -34.4828         0.001505   
     34. D(H   5,H   3,C   2,H   4)    -83.7686         0.005440   
     35. D(Cl  1,H   3,C   2,H   4)    -42.7307         0.005440   
     36. D(Cl  1,H   3,C   2,H   5)     41.0380         0.005440   
     37. D(H   5,H   3,Cl  1,H   4)     67.5965         0.001505   
     38. D(C   2,H   3,Cl  1,H   4)     33.1137         0.001505   
     39. D(H   5,H   4,C   2,F   0)   -137.9711         0.005907   
     40. D(H   5,H   4,Cl  1,H   3)    -67.9427         0.001505   
     41. D(H   5,H   4,C   2,H   3)     83.3929         0.005907   
     42. D(Cl  1,H   4,C   2,F   0)   -178.8454         0.005907   
     43. D(C   2,H   4,Cl  1,H   5)     34.4795         0.001505   
     44. D(C   2,H   4,Cl  1,H   3)    -33.4631         0.001505   
     45. D(Cl  1,H   4,C   2,H   5)    -40.8743         0.005907   
     46. D(Cl  1,H   4,C   2,H   3)     42.5186         0.005907   
     47. D(H   4,H   5,H   3,Cl  1)    -76.3187         0.001548   
     48. D(H   4,H   5,H   3,C   2)     57.2584         0.001548   
     49. D(C   2,H   5,H   3,Cl  1)   -133.5771         0.001548   
     50. D(Cl  1,H   5,C   2,H   4)     42.8012         0.003784   
     51. D(Cl  1,H   5,C   2,F   0)    179.9545         0.003784   
     52. D(H   4,H   5,C   2,H   3)    -85.5636         0.003784   
     53. D(H   4,H   5,C   2,F   0)    137.1533         0.003784   
     54. D(H   3,H   5,C   2,H   4)     85.5636         0.003784   
     55. D(H   3,H   5,C   2,F   0)   -137.2831         0.003784   
     56. D(Cl  1,H   5,C   2,H   3)    -42.7624         0.003784   
     57. D(H   4,H   5,Cl  1,H   3)     64.9685         0.001509   
     58. D(H   3,H   5,Cl  1,H   4)    -64.9685         0.001509   
     59. D(C   2,H   5,Cl  1,H   4)    -32.3133         0.001509   
     60. D(Cl  1,H   5,H   3,C   2)    133.5771         0.001548   
     61. D(Cl  1,H   5,H   4,C   2)   -133.6841         0.001548   
     62. D(H   3,H   5,H   4,Cl  1)     75.7402         0.001548   
     63. D(C   2,H   5,Cl  1,H   3)     32.6552         0.001509   
     64. D(H   3,H   5,H   4,C   2)    -57.9439         0.001548   
     65. D(C   2,H   5,H   4,Cl  1)    133.6841         0.001548   
    -----------------------------------------------------------------

Number of atoms                         .... 6
Number of degrees of freedom            .... 65

         *************************************************************
         *                GEOMETRY OPTIMIZATION CYCLE   1            *
         *************************************************************
---------------------------------
CARTESIAN COORDINATES (ANGSTROEM)
---------------------------------
  F     -2.386672   -0.023815    0.088820
  Cl     1.585669    0.059416   -0.065896
  C     -1.503072   -0.017484    0.054303
  H     -0.582006   -0.601293   -0.978997
  H     -0.519392   -0.550997    1.035693
  H     -0.492113    1.194930   -0.015720

----------------------------
CARTESIAN COORDINATES (A.U.)
----------------------------
  NO LB      ZA    FRAG     MASS         X           Y           Z
   0 F     9.0000    0    18.998   -4.510156   -0.045004    0.167845
   1 Cl   17.0000    0    35.453    2.996480    0.112280   -0.124525
   2 C     6.0000    0    12.011   -2.840394   -0.033040    0.102618
   3 H     1.0000    0     1.008   -1.099832   -1.136279   -1.850036
   4 H     1.0000    0     1.008   -0.981509   -1.041233    1.957176
   5 H     1.0000    0     1.008   -0.929959    2.258090   -0.029706

--------------------------------
INTERNAL COORDINATES (ANGSTROEM)
--------------------------------
 F      0   0   0     0.000000000000     0.00000000     0.00000000
 Cl     1   0   0     3.976224020386     0.00000000     0.00000000
 C      1   2   0     0.884296593259     0.78923564     0.00000000
 H      3   1   2     1.502299708726   129.54517614   238.86370217
 H      3   1   4     1.488418219342   129.20271730   238.58681572
 H      3   1   5     1.580154747993   130.27851528   240.61876978

---------------------------
INTERNAL COORDINATES (A.U.)
---------------------------
 F      0   0   0     0.000000000000     0.00000000     0.00000000
 Cl     1   0   0     7.513974445650     0.00000000     0.00000000
 C      1   2   0     1.671078382420     0.78923564     0.00000000
 H      3   1   2     2.838935020561   129.54517614   238.86370217
 H      3   1   4     2.812702807295   129.20271730   238.58681572
 H      3   1   5     2.986059722923   130.27851528   240.61876978

---------------------
BASIS SET INFORMATION
---------------------
There are 4 groups of distinct atoms

 Group   1 Type F   : 7s4p1d contracted to 3s2p1d pattern {511/31/1}
 Group   2 Type Cl  : 10s7p1d contracted to 4s3p1d pattern {5311/511/1}
 Group   3 Type C   : 7s4p1d contracted to 3s2p1d pattern {511/31/1}
 Group   4 Type H   : 4s1p contracted to 2s1p pattern {31/1}

Atom   0F    basis set group =>   1
Atom   1Cl   basis set group =>   2
Atom   2C    basis set group =>   3
Atom   3H    basis set group =>   4
Atom   4H    basis set group =>   4
Atom   5H    basis set group =>   4
---------------------------------
AUXILIARY/J BASIS SET INFORMATION
---------------------------------
There are 4 groups of distinct atoms

 Group   1 Type F   : 12s5p4d2f1g contracted to 6s4p3d1f1g pattern {711111/2111/211/2/1}
 Group   2 Type Cl  : 14s5p5d2f1g contracted to 8s4p3d1f1g pattern {71111111/2111/311/2/1}
 Group   3 Type C   : 12s5p4d2f1g contracted to 6s4p3d1f1g pattern {711111/2111/211/2/1}
 Group   4 Type H   : 5s2p1d contracted to 3s1p1d pattern {311/2/1}

Atom   0F    basis set group =>   1
Atom   1Cl   basis set group =>   2
Atom   2C    basis set group =>   3
Atom   3H    basis set group =>   4
Atom   4H    basis set group =>   4
Atom   5H    basis set group =>   4


           ************************************************************
           *        Program running with 4 parallel MPI-processes     *
           *              working on a common directory               *
           ************************************************************
------------------------------------------------------------------------------
                           ORCA GTO INTEGRAL CALCULATION
                           -- RI-GTO INTEGRALS CHOSEN --
------------------------------------------------------------------------------

                         BASIS SET STATISTICS AND STARTUP INFO

Gaussian basis set:
 # of primitive gaussian shells          ...   57
 # of primitive gaussian functions       ...  105
 # of contracted shells                  ...   29
 # of contracted basis functions         ...   61
 Highest angular momentum                ...    2
 Maximum contraction depth               ...    5
Auxiliary gaussian basis set:
 # of primitive gaussian shells          ...   99
 # of primitive gaussian functions       ...  265
 # of contracted shells                  ...   62
 # of contracted aux-basis functions     ...  182
 Highest angular momentum                ...    4
 Maximum contraction depth               ...    7
Ratio of auxiliary to basis functions    ...  2.98
Integral package used                  ... LIBINT
 One Electron integrals                  ... done
 Ordering auxiliary basis shells         ... done
 Integral threshhold             Thresh  ...  2.500e-11
 Primitive cut-off               TCut    ...  2.500e-12
 Pre-screening matrix                    ... done
 Shell pair data                         ... 
 Ordering of the shell pairs             ... done (   0.000 sec) 418 of 435 pairs
 Determination of significant pairs      ... done (   0.000 sec)
 Creation of shell pair data             ... done (   0.000 sec)
 Storage of shell pair data              ... done (   0.000 sec)
 Shell pair data done in (   0.000 sec)
 Computing two index integrals           ... done
 Cholesky decomposition of the V-matrix  ... done


Timings:
 Total evaluation time                   ...   0.101 sec (  0.002 min)
 One electron matrix time                ...   0.004 sec (  0.000 min) =  3.9%
 Schwartz matrix evaluation time         ...   0.075 sec (  0.001 min) = 74.3%
 Two index repulsion integral time       ...   0.001 sec (  0.000 min) =  1.0%
 Cholesky decomposition of V             ...   0.007 sec (  0.000 min) =  7.2%
 Three index repulsion integral time     ...   0.000 sec (  0.000 min) =  0.0%



           ************************************************************
           *        Program running with 4 parallel MPI-processes     *
           *              working on a common directory               *
           ************************************************************
-------------------------------------------------------------------------------
                                 ORCA SCF
-------------------------------------------------------------------------------

------------
SCF SETTINGS
------------
Hamiltonian:
 Density Functional     Method          .... DFT(GTOs)
 Exchange Functional    Exchange        .... PBE
   PBE kappa parameter   XKappa         ....  0.804000
   PBE mue parameter    XMuePBE         ....  0.219520
 Correlation Functional Correlation     .... PBE
   PBE beta parameter  CBetaPBE         ....  0.066725
 LDA part of GGA corr.  LDAOpt          .... PW91-LDA
 Gradients option       PostSCFGGA      .... off
 Hybrid DFT is turned on
   Fraction HF Exchange ScalHFX         ....  0.250000
   Scaling of DF-GGA-X  ScalDFX         ....  0.750000
   Scaling of DF-GGA-C  ScalDFC         ....  1.000000
   Scaling of DF-LDA-C  ScalLDAC        ....  1.000000
   Perturbative correction              ....  0.000000
   Density functional embedding theory  .... OFF
   NL short-range parameter             ....  6.900000
 RI-approximation to the Coulomb term is turned on
   Number of auxiliary basis functions  .... 182
   RIJ-COSX (HFX calculated with COS-X)).... on


General Settings:
 Integral files         IntName         .... ts_guess_hess_forwards_orca
 Hartree-Fock type      HFTyp           .... RHF
 Total Charge           Charge          ....   -1
 Multiplicity           Mult            ....    1
 Number of Electrons    NEL             ....   36
 Basis Dimension        Dim             ....   61
 Nuclear Repulsion      ENuc            ....     94.8258211639 Eh

Convergence Acceleration:
 DIIS                   CNVDIIS         .... on
   Start iteration      DIISMaxIt       ....    12
   Startup error        DIISStart       ....  0.200000
   # of expansion vecs  DIISMaxEq       ....     5
   Bias factor          DIISBfac        ....   1.050
   Max. coefficient     DIISMaxC        ....  10.000
 Newton-Raphson         CNVNR           .... off
 SOSCF                  CNVSOSCF        .... on
   Start iteration      SOSCFMaxIt      ....   150
   Startup grad/error   SOSCFStart      ....  0.003300
 Level Shifting         CNVShift        .... on
   Level shift para.    LevelShift      ....    0.2500
   Turn off err/grad.   ShiftErr        ....    0.0010
 Zerner damping         CNVZerner       .... off
 Static damping         CNVDamp         .... on
   Fraction old density DampFac         ....    0.7000
   Max. Damping (<1)    DampMax         ....    0.9800
   Min. Damping (>=0)   DampMin         ....    0.0000
   Turn off err/grad.   DampErr         ....    0.1000
 Fernandez-Rico         CNVRico         .... off

SCF Procedure:
 Maximum # iterations   MaxIter         ....   250
 SCF integral mode      SCFMode         .... Direct
   Integral package                     .... LIBINT
 Reset frequency        DirectResetFreq ....    20
 Integral Threshold     Thresh          ....  2.500e-11 Eh
 Primitive CutOff       TCut            ....  2.500e-12 Eh

Convergence Tolerance:
 Convergence Check Mode ConvCheckMode   .... Total+1el-Energy
 Convergence forced     ConvForced      .... 0
 Energy Change          TolE            ....  1.000e-08 Eh
 1-El. energy change                    ....  1.000e-05 Eh
 Orbital Gradient       TolG            ....  1.000e-05
 Orbital Rotation angle TolX            ....  1.000e-05
 DIIS Error             TolErr          ....  5.000e-07


Diagonalization of the overlap matrix:
Smallest eigenvalue                        ... 1.398e-02
Time for diagonalization                   ...    0.011 sec
Threshold for overlap eigenvalues          ... 1.000e-08
Number of eigenvalues below threshold      ... 0
Time for construction of square roots      ...    0.001 sec
Total time needed                          ...    0.012 sec

-------------------
DFT GRID GENERATION
-------------------

General Integration Accuracy     IntAcc      ...  4.340
Radial Grid Type                 RadialGrid  ... Gauss-Chebyshev
Angular Grid (max. acc.)         AngularGrid ... Lebedev-110
Angular grid pruning method      GridPruning ... 3 (G Style)
Weight generation scheme         WeightScheme... Becke
Basis function cutoff            BFCut       ...    1.0000e-11
Integration weight cutoff        WCut        ...    1.0000e-14
Grids for H and He will be reduced by one unit

# of grid points (after initial pruning)     ...   7622 (   0.0 sec)
# of grid points (after weights+screening)   ...   7432 (   0.0 sec)
nearest neighbour list constructed           ...    0.0 sec
Grid point re-assignment to atoms done       ...    0.0 sec
Grid point division into batches done        ...    0.0 sec
Reduced shell lists constructed in    0.0 sec

Total number of grid points                  ...     7432
Total number of batches                      ...      120
Average number of points per batch           ...       61
Average number of grid points per atom       ...     1239
Average number of shells per batch           ...    20.61 (71.08%)
Average number of basis functions per batch  ...    42.23 (69.22%)
Average number of large shells per batch     ...    17.97 (87.17%)
Average number of large basis fcns per batch ...    36.16 (85.64%)
Maximum spatial batch extension              ...  14.01, 25.60, 19.31 au
Average spatial batch extension              ...   1.09,  1.46,  1.37 au

Time for grid setup =    0.024 sec

------------------------------
INITIAL GUESS: MODEL POTENTIAL
------------------------------
Loading Hartree-Fock densities                     ... done
Calculating cut-offs                               ... done
Setting up the integral package                    ... done
Initializing the effective Hamiltonian             ... done
Starting the Coulomb interaction                   ... done (   0.0 sec)
Reading the grid                                   ... done
Mapping shells                                     ... done
Starting the XC term evaluation                    ... done (   0.0 sec)
  promolecular density results
     # of electrons  =     34.994607101
     EX              =    -43.446141762
     EC              =     -1.250532728
     EX+EC           =    -44.696674490
Transforming the Hamiltonian                       ... done (   0.0 sec)
Diagonalizing the Hamiltonian                      ... done (   0.0 sec)
Back transforming the eigenvectors                 ... done (   0.0 sec)
Now organizing SCF variables                       ... done
                      ------------------
                      INITIAL GUESS DONE (   0.1 sec)
                      ------------------
--------------------
COSX GRID GENERATION
--------------------

General Integration Accuracy     IntAcc      ...  3.340
Radial Grid Type                 RadialGrid  ... Gauss-Chebyshev
Angular Grid (max. acc.)         AngularGrid ... Lebedev-50
Angular grid pruning method      GridPruning ... 3 (G Style)
Weight generation scheme         WeightScheme... Becke
Basis function cutoff            BFCut       ...    1.0000e-11
Integration weight cutoff        WCut        ...    1.0000e-14
Grids for H and He will be reduced by one unit

# of grid points (after initial pruning)     ...   2826 (   0.0 sec)
# of grid points (after weights+screening)   ...   2758 (   0.0 sec)
nearest neighbour list constructed           ...    0.0 sec
Grid point re-assignment to atoms done       ...    0.0 sec
Grid point division into batches done        ...    0.0 sec
Reduced shell lists constructed in    0.0 sec

Total number of grid points                  ...     2758
Total number of batches                      ...       46
Average number of points per batch           ...       59
Average number of grid points per atom       ...      460
Average number of shells per batch           ...    21.23 (73.21%)
Average number of basis functions per batch  ...    43.38 (71.12%)
Average number of large shells per batch     ...    18.31 (86.23%)
Average number of large basis fcns per batch ...    37.69 (86.88%)
Maximum spatial batch extension              ...  15.31, 25.19, 25.19 au
Average spatial batch extension              ...   1.94,  2.52,  2.54 au

Overlap Fitting                  UseSFitting ... on
Constructing numerical overlap ... done (      0.0 sec)
Inverting numerical overlap    ... done (      0.0 sec)
Obtaining analytic overlap     ... done (      0.0 sec)
Final contraction and storage  ... done (      0.0 sec)


General Integration Accuracy     IntAcc      ...  3.670
Radial Grid Type                 RadialGrid  ... Gauss-Chebyshev
Angular Grid (max. acc.)         AngularGrid ... Lebedev-50
Angular grid pruning method      GridPruning ... 3 (G Style)
Weight generation scheme         WeightScheme... Becke
Basis function cutoff            BFCut       ...    1.0000e-11
Integration weight cutoff        WCut        ...    1.0000e-14
Grids for H and He will be reduced by one unit

# of grid points (after initial pruning)     ...   3566 (   0.0 sec)
# of grid points (after weights+screening)   ...   3475 (   0.0 sec)
nearest neighbour list constructed           ...    0.0 sec
Grid point re-assignment to atoms done       ...    0.0 sec
Grid point division into batches done        ...    0.0 sec
Reduced shell lists constructed in    0.0 sec

Total number of grid points                  ...     3475
Total number of batches                      ...       56
Average number of points per batch           ...       62
Average number of grid points per atom       ...      579
Average number of shells per batch           ...    21.33 (73.56%)
Average number of basis functions per batch  ...    44.00 (72.13%)
Average number of large shells per batch     ...    18.47 (86.56%)
Average number of large basis fcns per batch ...    37.80 (85.91%)
Maximum spatial batch extension              ...  16.45, 22.67, 26.98 au
Average spatial batch extension              ...   1.84,  2.16,  2.33 au

Overlap Fitting                  UseSFitting ... on
Constructing numerical overlap ... done (      0.0 sec)
Inverting numerical overlap    ... done (      0.0 sec)
Obtaining analytic overlap     ... done (      0.0 sec)
Final contraction and storage  ... done (      0.0 sec)


General Integration Accuracy     IntAcc      ...  4.010
Radial Grid Type                 RadialGrid  ... Gauss-Chebyshev
Angular Grid (max. acc.)         AngularGrid ... Lebedev-110
Angular grid pruning method      GridPruning ... 3 (G Style)
Weight generation scheme         WeightScheme... Becke
Basis function cutoff            BFCut       ...    1.0000e-11
Integration weight cutoff        WCut        ...    1.0000e-14
Grids for H and He will be reduced by one unit

# of grid points (after initial pruning)     ...   6574 (   0.0 sec)
# of grid points (after weights+screening)   ...   6412 (   0.0 sec)
nearest neighbour list constructed           ...    0.0 sec
Grid point re-assignment to atoms done       ...    0.0 sec
Grid point division into batches done        ...    0.0 sec
Reduced shell lists constructed in    0.0 sec

Total number of grid points                  ...     6412
Total number of batches                      ...      105
Average number of points per batch           ...       61
Average number of grid points per atom       ...     1069
Average number of shells per batch           ...    20.50 (70.69%)
Average number of basis functions per batch  ...    42.07 (68.97%)
Average number of large shells per batch     ...    17.39 (84.84%)
Average number of large basis fcns per batch ...    34.82 (82.77%)
Maximum spatial batch extension              ...  14.67, 24.23, 21.46 au
Average spatial batch extension              ...   1.29,  1.80,  1.53 au

Overlap Fitting                  UseSFitting ... on
Constructing numerical overlap ... done (      0.0 sec)
Inverting numerical overlap    ... done (      0.0 sec)
Obtaining analytic overlap     ... done (      0.0 sec)
Final contraction and storage  ... done (      0.0 sec)

Time for X-Grid setup             =    0.074 sec
--------------
SCF ITERATIONS
--------------
ITER       Energy         Delta-E        Max-DP      RMS-DP      [F,P]     Damp
               ***  Starting incremental Fock matrix formation  ***
  0   -598.7099568388   0.000000000000 0.10551594  0.00438309  0.1446346 0.7000
  1   -598.7462139879  -0.036257149081 0.07165533  0.00362821  0.0852416 0.7000
                               ***Turning on DIIS***
  2   -598.7665709303  -0.020356942391 0.14801118  0.00760870  0.0416247 0.0000
  3   -598.7988807068  -0.032309776521 0.06814682  0.00273459  0.0365997 0.0000
  4   -598.8036114821  -0.004730775268 0.01667835  0.00058175  0.0085855 0.0000
                      *** Initiating the SOSCF procedure ***
                           *** Shutting down DIIS ***
                      *** Re-Reading the Fockian *** 
                      *** Removing any level shift *** 
ITER      Energy       Delta-E        Grad      Rot      Max-DP    RMS-DP
  5   -598.80381366  -0.0002021764  0.000563  0.000563  0.005666  0.000221
               *** Restarting incremental Fock matrix formation ***
  6   -598.80381716  -0.0000034986  0.000400  0.000983  0.001298  0.000085
  7   -598.80381549   0.0000016674  0.000582  0.000574  0.000747  0.000047
  8   -598.80381887  -0.0000033815  0.000075  0.000261  0.000423  0.000022
  9   -598.80381882   0.0000000525  0.000090  0.000142  0.000214  0.000012
 10   -598.80381895  -0.0000001310  0.000005  0.000006  0.000023  0.000001
 11   -598.80381895   0.0000000011  0.000004  0.000003  0.000012  0.000001
                 **** Energy Check signals convergence ****
              ***Rediagonalizing the Fockian in SOSCF/NRSCF***

               *****************************************************
               *                     SUCCESS                       *
               *           SCF CONVERGED AFTER  12 CYCLES          *
               *****************************************************

Setting up the final grid:

General Integration Accuracy     IntAcc      ...  4.670
Radial Grid Type                 RadialGrid  ... Gauss-Chebyshev
Angular Grid (max. acc.)         AngularGrid ... Lebedev-302
Angular grid pruning method      GridPruning ... 3 (G Style)
Weight generation scheme         WeightScheme... Becke
Basis function cutoff            BFCut       ...    1.0000e-11
Integration weight cutoff        WCut        ...    1.0000e-14
Grids for H and He will be reduced by one unit

# of grid points (after initial pruning)     ...  29404 (   0.0 sec)
# of grid points (after weights+screening)   ...  28561 (   0.0 sec)
nearest neighbour list constructed           ...    0.0 sec
Grid point re-assignment to atoms done       ...    0.0 sec
Grid point division into batches done        ...    0.1 sec
Reduced shell lists constructed in    0.1 sec

Total number of grid points                  ...    28561
Total number of batches                      ...      449
Average number of points per batch           ...       63
Average number of grid points per atom       ...     4760
Average number of shells per batch           ...    17.97 (61.98%)
Average number of basis functions per batch  ...    36.50 (59.84%)
Average number of large shells per batch     ...    15.61 (86.87%)
Average number of large basis fcns per batch ...    31.56 (86.47%)
Maximum spatial batch extension              ...  16.49, 20.64, 25.31 au
Average spatial batch extension              ...   0.94,  1.10,  1.10 au

Final grid set up in    0.1 sec
Final integration                            ... done (   0.0 sec)
Change in XC energy                          ...    -0.000578134
Integrated number of electrons               ...    35.999991196
Previous integrated no of electrons          ...    35.997327459
Old exchange energy                            =    -11.033746732 Eh
New exchange energy                            =    -11.033482896 Eh
Exchange energy change after final integration =      0.000263836 Eh
Total energy after final integration           =   -598.804133246 Eh
Final COS-X integration done in                =     0.080 sec

----------------
TOTAL SCF ENERGY
----------------

Total Energy       :         -598.80413325 Eh          -16294.28885 eV

Components:
Nuclear Repulsion  :           94.82582116 Eh            2580.34178 eV
Electronic Energy  :         -693.62995441 Eh          -18874.63063 eV
One Electron Energy:        -1022.33748704 Eh          -27819.21732 eV
Two Electron Energy:          328.70753263 Eh            8944.58670 eV

Virial components:
Potential Energy   :        -1198.44855199 Eh          -32611.44303 eV
Kinetic Energy     :          599.64441874 Eh           16317.15418 eV
Virial Ratio       :            1.99859869


DFT components:
N(Alpha)           :       17.999995598148 electrons
N(Beta)            :       17.999995598148 electrons
N(Total)           :       35.999991196297 electrons
E(X)               :      -32.971164932287 Eh       
E(C)               :       -1.300364956386 Eh       
E(XC)              :      -34.271529888674 Eh       
DFET-embed. en.    :        0.000000000000 Eh       

---------------
SCF CONVERGENCE
---------------

  Last Energy change         ...    4.5111e-10  Tolerance :   1.0000e-08
  Last MAX-Density change    ...    3.5527e-15  Tolerance :   1.0000e-07
  Last RMS-Density change    ...    1.1745e-16  Tolerance :   5.0000e-09
  Last Orbital Gradient      ...    2.8396e-07  Tolerance :   1.0000e-05
  Last Orbital Rotation      ...    2.6516e-07  Tolerance :   1.0000e-05

             **** THE GBW FILE WAS UPDATED (ts_guess_hess_forwards_orca.gbw) ****
             **** DENSITY FILE WAS UPDATED (ts_guess_hess_forwards_orca.scfp) ****
             **** ENERGY FILE WAS UPDATED (ts_guess_hess_forwards_orca.en.tmp) ****
             **** THE GBW FILE WAS UPDATED (ts_guess_hess_forwards_orca.gbw) ****
             **** DENSITY FILE WAS UPDATED (ts_guess_hess_forwards_orca.scfp) ****
----------------
ORBITAL ENERGIES
----------------

  NO   OCC          E(Eh)            E(eV) 
   0   2.0000    -101.311404     -2756.8235 
   1   2.0000     -24.773886      -674.1317 
   2   2.0000     -10.203796      -277.6594 
   3   2.0000      -9.157870      -249.1983 
   4   2.0000      -6.894981      -187.6220 
   5   2.0000      -6.892863      -187.5644 
   6   2.0000      -6.892841      -187.5637 
   7   2.0000      -1.473102       -40.0851 
   8   2.0000      -0.659465       -17.9450 
   9   2.0000      -0.606270       -16.4975 
  10   2.0000      -0.605653       -16.4807 
  11   2.0000      -0.457814       -12.4577 
  12   2.0000      -0.323747        -8.8096 
  13   2.0000      -0.052709        -1.4343 
  14   2.0000      -0.047170        -1.2836 
  15   2.0000       0.000641         0.0175 
  16   2.0000       0.015630         0.4253 
  17   2.0000       0.019618         0.5338 
  18   0.0000       0.238372         6.4864 
  19   0.0000       0.313203         8.5227 
  20   0.0000       0.323508         8.8031 
  21   0.0000       0.345093         9.3904 
  22   0.0000       0.640315        17.4239 
  23   0.0000       0.642933        17.4951 
  24   0.0000       0.694692        18.9035 
  25   0.0000       0.721901        19.6439 
  26   0.0000       0.724194        19.7063 
  27   0.0000       0.823727        22.4148 
  28   0.0000       0.973575        26.4923 
  29   0.0000       1.068403        29.0727 
  30   0.0000       1.139538        31.0084 
  31   0.0000       1.139683        31.0123 
  32   0.0000       1.146444        31.1963 
  33   0.0000       1.148288        31.2465 
  34   0.0000       1.171667        31.8827 
  35   0.0000       1.226761        33.3819 
  36   0.0000       1.227059        33.3900 
  37   0.0000       1.323263        36.0078 
  38   0.0000       1.331147        36.2224 
  39   0.0000       1.331969        36.2447 
  40   0.0000       1.414057        38.4784 
  41   0.0000       1.546674        42.0871 
  42   0.0000       1.551449        42.2171 
  43   0.0000       1.663560        45.2678 
  44   0.0000       1.676695        45.6252 
  45   0.0000       1.740929        47.3731 
  46   0.0000       1.749703        47.6118 
  47   0.0000       1.901821        51.7512 
  48   0.0000       1.907793        51.9137 
  49   0.0000       2.013499        54.7901 
  50   0.0000       2.024516        55.0899 
  51   0.0000       2.078607        56.5618 
  52   0.0000       2.381406        64.8013 
  53   0.0000       2.587495        70.4093 
  54   0.0000       2.636477        71.7422 
  55   0.0000       3.242985        88.2461 
  56   0.0000       3.250811        88.4591 
  57   0.0000       3.280587        89.2693 
  58   0.0000       4.099335       111.5486 
  59   0.0000       4.116506       112.0158 
  60   0.0000       4.417920       120.2177 

                    ********************************
                    * MULLIKEN POPULATION ANALYSIS *
                    ********************************

-----------------------
MULLIKEN ATOMIC CHARGES
-----------------------
   0 F :    0.452088
   1 Cl:   -0.740134
   2 C :   -0.429163
   3 H :   -0.091295
   4 H :   -0.088056
   5 H :   -0.103440
Sum of atomic charges:   -1.0000000

--------------------------------
MULLIKEN REDUCED ORBITAL CHARGES
--------------------------------
  0 F s       :     3.612137  s :     3.612137
      pz      :     1.704197  p :     4.904094
      px      :     1.502431
      py      :     1.697466
      dz2     :     0.002786  d :     0.031682
      dxz     :     0.010303
      dyz     :     0.000029
      dx2y2   :     0.008241
      dxy     :     0.010323
  1 Cls       :     5.986882  s :     5.986882
      pz      :     3.966083  p :    11.750543
      px      :     3.823389
      py      :     3.961071
      dz2     :     0.000177  d :     0.002709
      dxz     :     0.000958
      dyz     :     0.000063
      dx2y2   :     0.000265
      dxy     :     0.001246
  2 C s       :     3.415270  s :     3.415270
      pz      :     0.989615  p :     2.860372
      px      :     0.873413
      py      :     0.997343
      dz2     :     0.009974  d :     0.153520
      dxz     :     0.058250
      dyz     :     0.001874
      dx2y2   :     0.025793
      dxy     :     0.057629
  3 H s       :     1.076411  s :     1.076411
      pz      :     0.003419  p :     0.014884
      px      :     0.008994
      py      :     0.002471
  4 H s       :     1.072943  s :     1.072943
      pz      :     0.003152  p :     0.015113
      px      :     0.009475
      py      :     0.002485
  5 H s       :     1.089843  s :     1.089843
      pz      :     0.001755  p :     0.013597
      px      :     0.008727
      py      :     0.003115


                     *******************************
                     * LOEWDIN POPULATION ANALYSIS *
                     *******************************

----------------------
LOEWDIN ATOMIC CHARGES
----------------------
   0 F :    0.496511
   1 Cl:   -0.713043
   2 C :   -0.459818
   3 H :   -0.104848
   4 H :   -0.102690
   5 H :   -0.116111

-------------------------------
LOEWDIN REDUCED ORBITAL CHARGES
-------------------------------
  0 F s       :     3.419048  s :     3.419048
      pz      :     1.649129  p :     5.014106
      px      :     1.721446
      py      :     1.643531
      dz2     :     0.007501  d :     0.070335
      dxz     :     0.020346
      dyz     :     0.000041
      dx2y2   :     0.022356
      dxy     :     0.020091
  1 Cls       :     5.970337  s :     5.970337
      pz      :     3.970373  p :    11.739174
      px      :     3.803481
      py      :     3.965320
      dz2     :     0.000176  d :     0.003532
      dxz     :     0.001348
      dyz     :     0.000095
      dx2y2   :     0.000155
      dxy     :     0.001758
  2 C s       :     3.016176  s :     3.016176
      pz      :     1.002822  p :     3.032737
      px      :     1.026316
      py      :     1.003600
      dz2     :     0.025959  d :     0.410905
      dxz     :     0.157712
      dyz     :     0.003394
      dx2y2   :     0.071122
      dxy     :     0.152717
  3 H s       :     1.064874  s :     1.064874
      pz      :     0.011536  p :     0.039974
      px      :     0.021201
      py      :     0.007237
  4 H s       :     1.061729  s :     1.061729
      pz      :     0.011005  p :     0.040961
      px      :     0.022764
      py      :     0.007191
  5 H s       :     1.080708  s :     1.080708
      pz      :     0.003992  p :     0.035403
      px      :     0.021750
      py      :     0.009661


                      *****************************
                      * MAYER POPULATION ANALYSIS *
                      *****************************

  NA   - Mulliken gross atomic population
  ZA   - Total nuclear charge
  QA   - Mulliken gross atomic charge
  VA   - Mayer's total valence
  BVA  - Mayer's bonded valence
  FA   - Mayer's free valence

  ATOM       NA         ZA         QA         VA         BVA        FA
  0 F      8.5479     9.0000     0.4521     1.7725     1.7725    -0.0000
  1 Cl    17.7401    17.0000    -0.7401     0.4715     0.4715     0.0000
  2 C      6.4292     6.0000    -0.4292     4.1250     4.1250    -0.0000
  3 H      1.0913     1.0000    -0.0913     0.9821     0.9821     0.0000
  4 H      1.0881     1.0000    -0.0881     0.9828     0.9828     0.0000
  5 H      1.1034     1.0000    -0.1034     0.9801     0.9801     0.0000

  Mayer bond orders larger than 0.100000
B(  0-F ,  2-C ) :   1.6476 B(  1-Cl,  3-H ) :   0.1252 B(  1-Cl,  4-H ) :   0.1245 
B(  1-Cl,  5-H ) :   0.1295 B(  2-C ,  3-H ) :   0.7961 B(  2-C ,  4-H ) :   0.7982 
B(  2-C ,  5-H ) :   0.7881 


------------------
HIRSHFELD ANALYSIS
------------------

Total integrated alpha density =     17.998663729
Total integrated beta density  =     17.998663729

  ATOM     CHARGE      SPIN    
   0 F    0.111270    0.000000
   1 Cl  -0.743521    0.000000
   2 C    0.007935    0.000000
   3 H   -0.121917    0.000000
   4 H   -0.120047    0.000000
   5 H   -0.131047    0.000000

  TOTAL  -0.997327    0.000000

-------
TIMINGS
-------

Total SCF time: 0 days 0 hours 0 min 2 sec 

Total time                  ....       2.202 sec
Sum of individual times     ....       2.107 sec  ( 95.7%)

Fock matrix formation       ....       1.782 sec  ( 80.9%)
  Split-RI-J                ....       0.979 sec  ( 54.9% of F)
  Chain of spheres X        ....       0.701 sec  ( 39.3% of F)
  COS-X 1 center corr.      ....       0.000 sec  (  0.0% of F)
  XC integration            ....       0.078 sec  (  4.4% of F)
    Basis function eval.    ....       0.024 sec  ( 30.8% of XC)
    Density eval.           ....       0.015 sec  ( 18.8% of XC)
    XC-Functional eval.     ....       0.012 sec  ( 15.3% of XC)
    XC-Potential eval.      ....       0.017 sec  ( 21.7% of XC)
Diagonalization             ....       0.002 sec  (  0.1%)
Density matrix formation    ....       0.000 sec  (  0.0%)
Population analysis         ....       0.008 sec  (  0.4%)
Initial guess               ....       0.092 sec  (  4.2%)
Orbital Transformation      ....       0.000 sec  (  0.0%)
Orbital Orthonormalization  ....       0.000 sec  (  0.0%)
DIIS solution               ....       0.005 sec  (  0.2%)
SOSCF solution              ....       0.008 sec  (  0.4%)
Grid generation             ....       0.210 sec  (  9.5%)


-------------------------------------------------------------------------------
                          DFT DISPERSION CORRECTION                            
                                                                               
                              DFTD3 V3.1  Rev 1                                
                          USING Becke-Johnson damping                          
-------------------------------------------------------------------------------
The PBE0 functional is recognized
Active option DFTDOPT                   ...         4   

molecular C6(AA) [au] = 626.091274 


            DFT-D V3
 parameters
 s6 scaling factor         :     1.0000 
 a1 scaling factor         :     0.4145 
 s8 scaling factor         :     1.2177 
 a2 scaling factor         :     4.8593 
 ad hoc parameters k1-k3   :    16.0000     1.3333    -4.0000 

 Edisp/kcal,au: -2.097524216241  -0.003342617250 
 E6   /kcal   :  -1.333993875 
 E8   /kcal   :  -0.763530341 
 % E8         :  36.401503045 

-------------------------   ----------------
Dispersion correction           -0.003342617
-------------------------   ----------------


-------------------------   --------------------
FINAL SINGLE POINT ENERGY      -598.807475863335
-------------------------   --------------------



           ************************************************************
           *        Program running with 4 parallel MPI-processes     *
           *              working on a common directory               *
           ************************************************************
------------------------------------------------------------------------------
                         ORCA SCF GRADIENT CALCULATION
------------------------------------------------------------------------------

Gradient of the Kohn-Sham DFT energy:
Kohn-Sham wavefunction type      ... RKS
Hartree-Fock exchange scaling    ...    0.250
Number of operators              ...    1
Number of atoms                  ...    6
Basis set dimensions             ...   61
Integral neglect threshold       ... 2.5e-11
Integral primitive cutoff        ... 2.5e-12

Nuclear repulsion gradient       ... done
One Electron Gradient            ... done
Pre-screening matrix             ... done
RI-J gradient                    ... done
COSX-gradient                    ... done
Exchange-correlation gradient    ... done
Dispersion correction            ... done

------------------
CARTESIAN GRADIENT
------------------

   1   F   :    1.823991923    0.013047741   -0.070809259
   2   Cl  :   -0.006153524    0.000631933    0.000313870
   3   C   :   -1.968357568   -0.015572337    0.076490177
   4   H   :    0.048838489   -0.017893194   -0.033374675
   5   H   :    0.050759782   -0.016319171    0.030361578
   6   H   :    0.050335057    0.037801390   -0.003121698

Difference to translation invariance:
           :   -0.0005858413    0.0016963623   -0.0001400061

Norm of the cartesian gradient     ...    2.6877965123
RMS gradient                       ...    0.6335197134
MAX gradient                       ...    1.9683575678

-------
TIMINGS
-------

Total SCF gradient time            ...        0.448 sec

One electron gradient       ....       0.002 sec  (  0.4%)
Prescreening matrices       ....       0.005 sec  (  1.0%)
RI-J Coulomb gradient       ....       0.081 sec  ( 18.0%)
COSX gradient               ....       0.082 sec  ( 18.2%)
XC gradient                 ....       0.082 sec  ( 18.4%)
------------------------------------------------------------------------------
                         ORCA GEOMETRY RELAXATION STEP
------------------------------------------------------------------------------

Reading the OPT-File                    .... done
Getting information on internals        .... done
Copying old internal coords+grads       .... done
Making the new internal coordinates     .... (new redundants).... done
Validating the new internal coordinates .... (new redundants).... done
Calculating the B-matrix                .... done
Calculating the G,G- and P matrices     .... done
Transforming gradient to internals      .... done
Projecting the internal gradient        .... done
Number of atoms                         ....   6
Number of internal coordinates          ....  65
Current Energy                          ....  -598.807475863 Eh
Current gradient norm                   ....     2.687796512 Eh/bohr
Maximum allowed component of the step   ....  0.300
Current trust radius                    ....  0.300
Evaluating the initial hessian          ....  (Almloef) done
Projecting the Hessian                  .... done
Forming the augmented Hessian           .... done
Diagonalizing the augmented Hessian     .... done
Last element of RFO vector              ....  0.911110594
Lowest eigenvalues of augmented Hessian:
 -0.813388726  0.010460822  0.013549794  0.020928944  0.024579336
Length of the computed step             ....  0.452373144
Warning: the length of the step is outside the trust region - taking restricted step instead
The input lambda is                     ....    -0.813389
   iter:   1  x=   -1.787411  g=    0.117699 f(x)=     0.114641
   iter:   2  x=   -2.544353  g=    0.052294 f(x)=     0.039584
   iter:   3  x=   -2.773183  g=    0.033785 f(x)=     0.007731
   iter:   4  x=   -2.787926  g=    0.030019 f(x)=     0.000443
   iter:   5  x=   -2.787981  g=    0.029796 f(x)=     0.000002
   iter:   6  x=   -2.787981  g=    0.029796 f(x)=     0.000000
   iter:   7  x=   -2.787981  g=    0.029796 f(x)=     0.000000
The output lambda is                    ....    -2.787981 (7 iterations)
The final length of the internal step   ....  0.300000000
Converting the step to cartesian space:
 Initial RMS(Int)=    0.0372104204
Transforming coordinates:
 Iter   0:  RMS(Cart)=    0.0405073501 RMS(Int)=    0.0251290063
 Iter   1:  RMS(Cart)=    0.0211470558 RMS(Int)=    0.0121871914
 Iter   2:  RMS(Cart)=    0.0000152808 RMS(Int)=    0.0000145836
 Iter   3:  RMS(Cart)=    0.0000020573 RMS(Int)=    0.0000019144
 Iter   4:  RMS(Cart)=    0.0000002717 RMS(Int)=    0.0000002530
 Iter   5:  RMS(Cart)=    0.0000000359 RMS(Int)=    0.0000000334
done
Storing new coordinates                 .... done

                                .--------------------.
          ----------------------|Geometry convergence|-------------------------
          Item                value                   Tolerance       Converged
          ---------------------------------------------------------------------
          RMS gradient        0.2267172810            0.0001000000      NO
          MAX gradient        1.8255046709            0.0003000000      NO
          RMS step            0.0372104204            0.0020000000      NO
          MAX step            0.2982563620            0.0040000000      NO
          ........................................................
          Max(Bonds)      0.1578      Max(Angles)    0.33
          Max(Dihed)        0.28      Max(Improp)    0.00
          ---------------------------------------------------------------------

The optimization has not yet converged - more geometry cycles are needed


    ---------------------------------------------------------------------------
                         Redundant Internal Coordinates
                            (Angstroem and degrees)

        Definition                    Value    dE/dq     Step     New-Value
    ----------------------------------------------------------------------------
     1. B(C   2,F   0)                0.8843 -1.825505  0.1578    1.0421   
     2. B(H   3,Cl  1)                2.4432 -0.000101  0.0000    2.4432   
     3. B(H   3,C   2)                1.5023  0.042719 -0.0079    1.4944   
     4. B(H   4,C   2)                1.4884  0.042381 -0.0078    1.4806   
     5. B(H   4,Cl  1)                2.4530  0.000109 -0.0000    2.4530   
     6. B(H   5,H   4)                2.0383  0.018849 -0.0036    2.0347   
     7. B(H   5,H   3)                2.0402  0.018708 -0.0035    2.0367   
     8. B(H   5,Cl  1)                2.3684 -0.004433  0.0008    2.3692   
     9. B(H   5,C   2)                1.5802  0.040156 -0.0074    1.5727   
    10. A(H   3,Cl  1,H   5)           50.15  0.004982   -0.10     50.05   
    11. A(H   3,Cl  1,H   4)           48.64  0.008622   -0.17     48.46   
    12. A(H   4,Cl  1,H   5)           49.98  0.004974   -0.10     49.88   
    13. A(H   3,C   2,H   4)           84.78 -0.010072    0.20     84.98   
    14. A(H   4,C   2,H   5)           83.19 -0.016561    0.33     83.52   
    15. A(H   3,C   2,H   5)           82.84 -0.016522    0.33     83.17   
    16. A(F   0,C   2,H   4)          129.20  0.010041   -0.20    129.00   
    17. A(F   0,C   2,H   3)          129.55  0.010181   -0.20    129.34   
    18. A(F   0,C   2,H   5)          130.28  0.008816   -0.18    130.10   
    19. A(C   2,H   3,H   5)           50.22  0.007832   -0.16     50.06   
    20. A(Cl  1,H   3,H   5)           63.02 -0.003309    0.07     63.09   
    21. A(Cl  1,H   3,C   2)          100.48  0.005380   -0.10    100.37   
    22. A(Cl  1,H   4,H   5)           62.85 -0.003329    0.07     62.92   
    23. A(Cl  1,H   4,C   2)          100.48  0.005496   -0.11    100.37   
    24. A(C   2,H   4,H   5)           50.33  0.007931   -0.16     50.18   
    25. A(H   3,H   5,H   4)           59.26  0.005309   -0.11     59.15   
    26. A(C   2,H   5,H   4)           46.48  0.008630   -0.17     46.31   
    27. A(Cl  1,H   5,H   4)           67.17 -0.001646    0.03     67.20   
    28. A(Cl  1,H   5,H   3)           66.83 -0.001673    0.03     66.86   
    29. A(Cl  1,H   5,C   2)          101.21  0.007134   -0.14    101.07   
    30. A(C   2,H   5,H   3)           46.94  0.008690   -0.17     46.77   
    31. D(H   5,H   3,C   2,F   0)    137.84  0.002443   -0.05    137.79   
    32. D(Cl  1,H   3,C   2,F   0)    178.88 -0.001768    0.03    178.92   
    33. D(C   2,H   3,Cl  1,H   5)    -34.48 -0.002313    0.05    -34.44   
    34. D(H   5,H   3,C   2,H   4)    -83.77  0.014277   -0.28    -84.05   
    35. D(Cl  1,H   3,C   2,H   4)    -42.73  0.010066   -0.20    -42.93   
    36. D(Cl  1,H   3,C   2,H   5)     41.04 -0.004212    0.08     41.12   
    37. D(H   5,H   3,Cl  1,H   4)     67.60 -0.000534    0.01     67.61   
    38. D(C   2,H   3,Cl  1,H   4)     33.11 -0.002847    0.06     33.17   
    39. D(H   5,H   4,C   2,F   0)   -137.97 -0.002370    0.05   -137.92   
    40. D(H   5,H   4,Cl  1,H   3)    -67.94  0.000589   -0.01    -67.95   
    41. D(H   5,H   4,C   2,H   3)     83.39 -0.014291    0.28     83.68   
    42. D(Cl  1,H   4,C   2,F   0)   -178.85  0.001908   -0.04   -178.88   
    43. D(C   2,H   4,Cl  1,H   5)     34.48  0.002294   -0.05     34.43   
    44. D(C   2,H   4,Cl  1,H   3)    -33.46  0.002884   -0.06    -33.52   
    45. D(Cl  1,H   4,C   2,H   5)    -40.87  0.004277   -0.08    -40.96   
    46. D(Cl  1,H   4,C   2,H   3)     42.52 -0.010013    0.20     42.72   
    47. D(H   4,H   5,H   3,Cl  1)    -76.32  0.002696   -0.05    -76.37   
    48. D(H   4,H   5,H   3,C   2)     57.26  0.007056   -0.14     57.12   
    49. D(C   2,H   5,H   3,Cl  1)   -133.58 -0.004360    0.08   -133.49   
    50. D(Cl  1,H   5,C   2,H   4)     42.80 -0.003270    0.06     42.87   
    51. D(Cl  1,H   5,C   2,F   0)    179.95 -0.000164    0.00    179.96   
    52. D(H   4,H   5,C   2,H   3)    -85.56  0.006462   -0.13    -85.69   
    53. D(H   4,H   5,C   2,F   0)    137.15  0.003106   -0.06    137.09   
    54. D(H   3,H   5,C   2,H   4)     85.56 -0.006462    0.13     85.69   
    55. D(H   3,H   5,C   2,F   0)   -137.28 -0.003356    0.07   -137.22   
    56. D(Cl  1,H   5,C   2,H   3)    -42.76  0.003191   -0.06    -42.83   
    57. D(H   4,H   5,Cl  1,H   3)     64.97  0.006840   -0.14     64.83   
    58. D(H   3,H   5,Cl  1,H   4)    -64.97 -0.006840    0.14    -64.83   
    59. D(C   2,H   5,Cl  1,H   4)    -32.31 -0.003389    0.07    -32.25   
    60. D(Cl  1,H   5,H   3,C   2)    133.58  0.004360   -0.08    133.49   
    61. D(Cl  1,H   5,H   4,C   2)   -133.68 -0.004452    0.09   -133.60   
    62. D(H   3,H   5,H   4,Cl  1)     75.74 -0.002673    0.05     75.79   
    63. D(C   2,H   5,Cl  1,H   3)     32.66  0.003452   -0.07     32.59   
    64. D(H   3,H   5,H   4,C   2)    -57.94 -0.007125    0.14    -57.80   
    65. D(C   2,H   5,H   4,Cl  1)    133.68  0.004452   -0.09    133.60   
    ----------------------------------------------------------------------------

         *************************************************************
         *                GEOMETRY OPTIMIZATION CYCLE   2            *
         *************************************************************
---------------------------------
CARTESIAN COORDINATES (ANGSTROEM)
---------------------------------
  F     -2.512498   -0.025216    0.093736
  Cl     1.610469    0.060361   -0.066911
  C     -1.471196   -0.017015    0.053070
  H     -0.558637   -0.600505   -0.976526
  H     -0.496189   -0.550366    1.031382
  H     -0.469535    1.193498   -0.016548

----------------------------
CARTESIAN COORDINATES (A.U.)
----------------------------
  NO LB      ZA    FRAG     MASS         X           Y           Z
   0 F     9.0000    0    18.998   -4.747932   -0.047651    0.177135
   1 Cl   17.0000    0    35.453    3.043345    0.114065   -0.126444
   2 C     6.0000    0    12.011   -2.780158   -0.032154    0.100288
   3 H     1.0000    0     1.008   -1.055671   -1.134789   -1.845366
   4 H     1.0000    0     1.008   -0.937661   -1.040040    1.949030
   5 H     1.0000    0     1.008   -0.887293    2.255384   -0.031272

--------------------------------
INTERNAL COORDINATES (ANGSTROEM)
--------------------------------
 F      0   0   0     0.000000000000     0.00000000     0.00000000
 Cl     1   0   0     4.126982425000     0.00000000     0.00000000
 C      1   2   0     1.042127062302     0.73731324     0.00000000
 H      3   1   2     1.494420079886   129.34382126   238.85226234
 H      3   1   4     1.480607141677   129.00429184   238.78324239
 H      3   1   5     1.572740875349   130.10333422   240.51799427

---------------------------
INTERNAL COORDINATES (A.U.)
---------------------------
 F      0   0   0     0.000000000000     0.00000000     0.00000000
 Cl     1   0   0     7.798866542756     0.00000000     0.00000000
 C      1   2   0     1.969334744500     0.73731324     0.00000000
 H      3   1   2     2.824044680018   129.34382126   238.85226234
 H      3   1   4     2.797942009698   129.00429184   238.78324239
 H      3   1   5     2.972049534032   130.10333422   240.51799427



           ************************************************************
           *        Program running with 4 parallel MPI-processes     *
           *              working on a common directory               *
           ************************************************************
 One Electron integrals                  ... done
 Pre-screening matrix                    ... done


           ************************************************************
           *        Program running with 4 parallel MPI-processes     *
           *              working on a common directory               *
           ************************************************************

Diagonalization of the overlap matrix:
Smallest eigenvalue                        ... 2.081e-02
Time for diagonalization                   ...    0.001 sec
Threshold for overlap eigenvalues          ... 1.000e-08
Number of eigenvalues below threshold      ... 0
Time for construction of square roots      ...    0.000 sec
Total time needed                          ...    0.001 sec

-------------------
DFT GRID GENERATION
-------------------

General Integration Accuracy     IntAcc      ...  4.340
Radial Grid Type                 RadialGrid  ... Gauss-Chebyshev
Angular Grid (max. acc.)         AngularGrid ... Lebedev-110
Angular grid pruning method      GridPruning ... 3 (G Style)
Weight generation scheme         WeightScheme... Becke
Basis function cutoff            BFCut       ...    1.0000e-11
Integration weight cutoff        WCut        ...    1.0000e-14
Grids for H and He will be reduced by one unit

# of grid points (after initial pruning)     ...   7622 (   0.0 sec)
# of grid points (after weights+screening)   ...   7438 (   0.0 sec)
nearest neighbour list constructed           ...    0.0 sec
Grid point re-assignment to atoms done       ...    0.0 sec
Grid point division into batches done        ...    0.0 sec
Reduced shell lists constructed in    0.0 sec

Total number of grid points                  ...     7438
Total number of batches                      ...      120
Average number of points per batch           ...       61
Average number of grid points per atom       ...     1240
Average number of shells per batch           ...    20.19 (69.63%)
Average number of basis functions per batch  ...    41.03 (67.27%)
Average number of large shells per batch     ...    17.52 (86.74%)
Average number of large basis fcns per batch ...    35.32 (86.08%)
Maximum spatial batch extension              ...  15.53, 25.60, 22.78 au
Average spatial batch extension              ...   1.14,  1.53,  1.45 au

Time for grid setup =    0.018 sec

--------------------
COSX GRID GENERATION
--------------------

General Integration Accuracy     IntAcc      ...  3.340
Radial Grid Type                 RadialGrid  ... Gauss-Chebyshev
Angular Grid (max. acc.)         AngularGrid ... Lebedev-50
Angular grid pruning method      GridPruning ... 3 (G Style)
Weight generation scheme         WeightScheme... Becke
Basis function cutoff            BFCut       ...    1.0000e-11
Integration weight cutoff        WCut        ...    1.0000e-14
Grids for H and He will be reduced by one unit

# of grid points (after initial pruning)     ...   2826 (   0.0 sec)
# of grid points (after weights+screening)   ...   2764 (   0.0 sec)
nearest neighbour list constructed           ...    0.0 sec
Grid point re-assignment to atoms done       ...    0.0 sec
Grid point division into batches done        ...    0.0 sec
Reduced shell lists constructed in    0.0 sec

Total number of grid points                  ...     2764
Total number of batches                      ...       46
Average number of points per batch           ...       60
Average number of grid points per atom       ...      461
Average number of shells per batch           ...    21.08 (72.68%)
Average number of basis functions per batch  ...    43.23 (70.87%)
Average number of large shells per batch     ...    18.23 (86.50%)
Average number of large basis fcns per batch ...    37.46 (86.65%)
Maximum spatial batch extension              ...  15.31, 25.19, 25.19 au
Average spatial batch extension              ...   1.93,  2.47,  2.57 au

Overlap Fitting                  UseSFitting ... on
Constructing numerical overlap ... done (      0.0 sec)
Inverting numerical overlap    ... done (      0.0 sec)
Obtaining analytic overlap     ... done (      0.0 sec)
Final contraction and storage  ... done (      0.0 sec)


General Integration Accuracy     IntAcc      ...  3.670
Radial Grid Type                 RadialGrid  ... Gauss-Chebyshev
Angular Grid (max. acc.)         AngularGrid ... Lebedev-50
Angular grid pruning method      GridPruning ... 3 (G Style)
Weight generation scheme         WeightScheme... Becke
Basis function cutoff            BFCut       ...    1.0000e-11
Integration weight cutoff        WCut        ...    1.0000e-14
Grids for H and He will be reduced by one unit

# of grid points (after initial pruning)     ...   3566 (   0.0 sec)
# of grid points (after weights+screening)   ...   3478 (   0.0 sec)
nearest neighbour list constructed           ...    0.0 sec
Grid point re-assignment to atoms done       ...    0.0 sec
Grid point division into batches done        ...    0.0 sec
Reduced shell lists constructed in    0.0 sec

Total number of grid points                  ...     3478
Total number of batches                      ...       56
Average number of points per batch           ...       62
Average number of grid points per atom       ...      580
Average number of shells per batch           ...    21.07 (72.64%)
Average number of basis functions per batch  ...    43.20 (70.82%)
Average number of large shells per batch     ...    18.40 (87.34%)
Average number of large basis fcns per batch ...    37.73 (87.35%)
Maximum spatial batch extension              ...  16.45, 26.98, 26.98 au
Average spatial batch extension              ...   1.79,  2.25,  2.33 au

Overlap Fitting                  UseSFitting ... on
Constructing numerical overlap ... done (      0.0 sec)
Inverting numerical overlap    ... done (      0.0 sec)
Obtaining analytic overlap     ... done (      0.0 sec)
Final contraction and storage  ... done (      0.0 sec)


General Integration Accuracy     IntAcc      ...  4.010
Radial Grid Type                 RadialGrid  ... Gauss-Chebyshev
Angular Grid (max. acc.)         AngularGrid ... Lebedev-110
Angular grid pruning method      GridPruning ... 3 (G Style)
Weight generation scheme         WeightScheme... Becke
Basis function cutoff            BFCut       ...    1.0000e-11
Integration weight cutoff        WCut        ...    1.0000e-14
Grids for H and He will be reduced by one unit

# of grid points (after initial pruning)     ...   6574 (   0.0 sec)
# of grid points (after weights+screening)   ...   6419 (   0.0 sec)
nearest neighbour list constructed           ...    0.0 sec
Grid point re-assignment to atoms done       ...    0.0 sec
Grid point division into batches done        ...    0.0 sec
Reduced shell lists constructed in    0.0 sec

Total number of grid points                  ...     6419
Total number of batches                      ...      104
Average number of points per batch           ...       61
Average number of grid points per atom       ...     1070
Average number of shells per batch           ...    20.63 (71.14%)
Average number of basis functions per batch  ...    42.04 (68.91%)
Average number of large shells per batch     ...    17.67 (85.64%)
Average number of large basis fcns per batch ...    35.52 (84.49%)
Maximum spatial batch extension              ...  14.67, 24.23, 21.46 au
Average spatial batch extension              ...   1.21,  1.64,  1.53 au

Overlap Fitting                  UseSFitting ... on
Constructing numerical overlap ... done (      0.0 sec)
Inverting numerical overlap    ... done (      0.0 sec)
Obtaining analytic overlap     ... done (      0.0 sec)
Final contraction and storage  ... done (      0.0 sec)

Time for X-Grid setup             =    0.101 sec
--------------
SCF ITERATIONS
--------------
ITER       Energy         Delta-E        Max-DP      RMS-DP      [F,P]     Damp
               ***  Starting incremental Fock matrix formation  ***
  0   -599.1017264504   0.000000000000 0.03235425  0.00175635  0.1310121 0.7000
  1   -599.1140993917  -0.012372941274 0.02489277  0.00141237  0.0897295 0.7000
                               ***Turning on DIIS***
  2   -599.1226670525  -0.008567660863 0.06086500  0.00345082  0.0593040 0.0000
  3   -599.1424287114  -0.019761658881 0.00894688  0.00049970  0.0130257 0.0000
                      *** Initiating the SOSCF procedure ***
                           *** Shutting down DIIS ***
                      *** Re-Reading the Fockian *** 
                      *** Removing any level shift *** 
ITER      Energy       Delta-E        Grad      Rot      Max-DP    RMS-DP
  4   -599.14266707  -0.0002383544  0.001861  0.001861  0.003300  0.000195
               *** Restarting incremental Fock matrix formation ***
  5   -599.14270147  -0.0000344022  0.000955  0.002766  0.004219  0.000234
  6   -599.14268732   0.0000141438  0.001610  0.001519  0.002116  0.000133
  7   -599.14271301  -0.0000256862  0.000079  0.000164  0.000251  0.000017
  8   -599.14271296   0.0000000465  0.000098  0.000094  0.000119  0.000008
  9   -599.14271307  -0.0000001075  0.000005  0.000018  0.000031  0.000001
 10   -599.14271307  -0.0000000009  0.000006  0.000005  0.000015  0.000001
                 **** Energy Check signals convergence ****
              ***Rediagonalizing the Fockian in SOSCF/NRSCF***

               *****************************************************
               *                     SUCCESS                       *
               *           SCF CONVERGED AFTER  11 CYCLES          *
               *****************************************************

Setting up the final grid:

General Integration Accuracy     IntAcc      ...  4.670
Radial Grid Type                 RadialGrid  ... Gauss-Chebyshev
Angular Grid (max. acc.)         AngularGrid ... Lebedev-302
Angular grid pruning method      GridPruning ... 3 (G Style)
Weight generation scheme         WeightScheme... Becke
Basis function cutoff            BFCut       ...    1.0000e-11
Integration weight cutoff        WCut        ...    1.0000e-14
Grids for H and He will be reduced by one unit

# of grid points (after initial pruning)     ...  29404 (   0.0 sec)
# of grid points (after weights+screening)   ...  28592 (   0.0 sec)
nearest neighbour list constructed           ...    0.0 sec
Grid point re-assignment to atoms done       ...    0.0 sec
Grid point division into batches done        ...    0.1 sec
Reduced shell lists constructed in    0.1 sec

Total number of grid points                  ...    28592
Total number of batches                      ...      451
Average number of points per batch           ...       63
Average number of grid points per atom       ...     4765
Average number of shells per batch           ...    17.76 (61.25%)
Average number of basis functions per batch  ...    35.94 (58.92%)
Average number of large shells per batch     ...    15.21 (85.63%)
Average number of large basis fcns per batch ...    30.65 (85.28%)
Maximum spatial batch extension              ...  17.32, 20.64, 25.31 au
Average spatial batch extension              ...   0.96,  1.08,  1.10 au

Final grid set up in    0.1 sec
Final integration                            ... done (   0.0 sec)
Change in XC energy                          ...    -0.000419028
Integrated number of electrons               ...    35.999987411
Previous integrated no of electrons          ...    35.997285356
Old exchange energy                            =    -10.983389633 Eh
New exchange energy                            =    -10.982910813 Eh
Exchange energy change after final integration =      0.000478820 Eh
Total energy after final integration           =   -599.142653277 Eh
Final COS-X integration done in                =     0.079 sec
Total Energy       :         -599.14265328 Eh          -16303.50045 eV
  Last Energy change         ...    2.4290e-09  Tolerance :   1.0000e-08
  Last MAX-Density change    ...    3.5527e-15  Tolerance :   1.0000e-07
             **** THE GBW FILE WAS UPDATED (ts_guess_hess_forwards_orca.gbw) ****
             **** DENSITY FILE WAS UPDATED (ts_guess_hess_forwards_orca.scfp) ****
             **** ENERGY FILE WAS UPDATED (ts_guess_hess_forwards_orca.en.tmp) ****
             **** THE GBW FILE WAS UPDATED (ts_guess_hess_forwards_orca.gbw) ****
             **** DENSITY FILE WAS UPDATED (ts_guess_hess_forwards_orca.scfp) ****
Total SCF time: 0 days 0 hours 0 min 2 sec 


-------------------------------------------------------------------------------
                          DFT DISPERSION CORRECTION                            
                                                                               
                              DFTD3 V3.1  Rev 1                                
                          USING Becke-Johnson damping                          
-------------------------------------------------------------------------------
-------------------------   ----------------
Dispersion correction           -0.003288649
-------------------------   ----------------


-------------------------   --------------------
FINAL SINGLE POINT ENERGY      -599.145941925872
-------------------------   --------------------



           ************************************************************
           *        Program running with 4 parallel MPI-processes     *
           *              working on a common directory               *
           ************************************************************
------------------------------------------------------------------------------
                         ORCA SCF GRADIENT CALCULATION
------------------------------------------------------------------------------

Gradient of the Kohn-Sham DFT energy:
Kohn-Sham wavefunction type      ... RKS
Hartree-Fock exchange scaling    ...    0.250
Number of operators              ...    1
Number of atoms                  ...    6
Basis set dimensions             ...   61
Integral neglect threshold       ... 2.5e-11
Integral primitive cutoff        ... 2.5e-12

Nuclear repulsion gradient       ... done
One Electron Gradient            ... done
Pre-screening matrix             ... done
RI-J gradient                    ... done
COSX-gradient                    ... done
Exchange-correlation gradient    ... done
Dispersion correction            ... done

------------------
CARTESIAN GRADIENT
------------------

   1   F   :    0.616763920    0.005296724   -0.022862055
   2   Cl  :   -0.004186228    0.000262932    0.000301998
   3   C   :   -0.783333364   -0.007085440    0.030319380
   4   H   :    0.056201967   -0.023483352   -0.042554739
   5   H   :    0.059114441   -0.021547995    0.039293015
   6   H   :    0.056034315    0.047973620   -0.003584925

Difference to translation invariance:
           :    0.0005950499    0.0014164894    0.0009126737

Norm of the cartesian gradient     ...    1.0059944076
RMS gradient                       ...    0.2371151558
MAX gradient                       ...    0.7833333643

-------
TIMINGS
-------

Total SCF gradient time            ...        0.447 sec

One electron gradient       ....       0.002 sec  (  0.4%)
Prescreening matrices       ....       0.004 sec  (  1.0%)
RI-J Coulomb gradient       ....       0.073 sec  ( 16.4%)
COSX gradient               ....       0.079 sec  ( 17.8%)
XC gradient                 ....       0.079 sec  ( 17.7%)
------------------------------------------------------------------------------
                         ORCA GEOMETRY RELAXATION STEP
------------------------------------------------------------------------------

Reading the OPT-File                    .... done
Getting information on internals        .... done
Copying old internal coords+grads       .... done
Making the new internal coordinates     .... (new redundants).... done
Validating the new internal coordinates .... (new redundants).... done
Calculating the B-matrix                .... done
Calculating the G,G- and P matrices     .... done
Transforming gradient to internals      .... done
Projecting the internal gradient        .... done
Number of atoms                         ....   6
Number of internal coordinates          ....  65
Current Energy                          ....  -599.145941926 Eh
Current gradient norm                   ....     1.005994408 Eh/bohr
Maximum allowed component of the step   ....  0.300
Current trust radius                    ....  0.300
Updating the Hessian (BFGS)             .... done
Forming the augmented Hessian           .... done
Diagonalizing the augmented Hessian     .... done
Last element of RFO vector              ....  0.876559804
Lowest eigenvalues of augmented Hessian:
 -0.152149236  0.011056675  0.013550578  0.020980389  0.024579333
Length of the computed step             ....  0.549070303
Warning: the length of the step is outside the trust region - taking restricted step instead
The input lambda is                     ....    -0.152149
   iter:   1  x=   -0.234074  g=    2.581366 f(x)=     0.211478
   iter:   2  x=   -0.314110  g=    0.989203 f(x)=     0.079171
   iter:   3  x=   -0.360764  g=    0.492629 f(x)=     0.022984
   iter:   4  x=   -0.370852  g=    0.351463 f(x)=     0.003545
   iter:   5  x=   -0.371212  g=    0.328416 f(x)=     0.000118
   iter:   6  x=   -0.371212  g=    0.327634 f(x)=     0.000000
   iter:   7  x=   -0.371212  g=    0.327633 f(x)=     0.000000
   iter:   8  x=   -0.371212  g=    0.327633 f(x)=     0.000000
The output lambda is                    ....    -0.371212 (8 iterations)
The final length of the internal step   ....  0.300000000
[...]
Angular grid pruning method      GridPruning ... 3 (G Style)
Weight generation scheme         WeightScheme... Becke
Basis function cutoff            BFCut       ...    1.0000e-11
Integration weight cutoff        WCut        ...    1.0000e-14
Grids for H and He will be reduced by one unit

# of grid points (after initial pruning)     ...   6574 (   0.0 sec)
# of grid points (after weights+screening)   ...   6421 (   0.0 sec)
nearest neighbour list constructed           ...    0.0 sec
Grid point re-assignment to atoms done       ...    0.0 sec
Grid point division into batches done        ...    0.0 sec
Reduced shell lists constructed in    0.0 sec

Total number of grid points                  ...     6421
Total number of batches                      ...      103
Average number of points per batch           ...       62
Average number of grid points per atom       ...     1070
Average number of shells per batch           ...    20.00 (68.97%)
Average number of basis functions per batch  ...    39.93 (65.45%)
Average number of large shells per batch     ...    17.37 (86.85%)
Average number of large basis fcns per batch ...    35.37 (88.59%)
Maximum spatial batch extension              ...  12.91, 24.23, 18.06 au
Average spatial batch extension              ...   1.25,  1.77,  1.52 au

Overlap Fitting                  UseSFitting ... on
Constructing numerical overlap ... done (      0.0 sec)
Inverting numerical overlap    ... done (      0.0 sec)
Obtaining analytic overlap     ... done (      0.0 sec)
Final contraction and storage  ... done (      0.0 sec)

Time for X-Grid setup             =    0.080 sec
--------------
SCF ITERATIONS
--------------
ITER       Energy         Delta-E        Max-DP      RMS-DP      [F,P]     Damp
               ***  Starting incremental Fock matrix formation  ***
                      *** Initiating the SOSCF procedure ***
                      *** Re-Reading the Fockian *** 
                      *** Removing any level shift *** 
ITER      Energy       Delta-E        Grad      Rot      Max-DP    RMS-DP
  0   -599.43756174 -599.4375617410  0.000072  0.000072  0.000105  0.000008
               *** Restarting incremental Fock matrix formation ***
  1   -599.43756187  -0.0000001257  0.000026  0.000041  0.000086  0.000005
  2   -599.43756188  -0.0000000182  0.000007  0.000013  0.000038  0.000002
  3   -599.43756189  -0.0000000051  0.000007  0.000003  0.000009  0.000001
                  ***Gradient check signals convergence***
              ***Rediagonalizing the Fockian in SOSCF/NRSCF***

               *****************************************************
               *                     SUCCESS                       *
               *           SCF CONVERGED AFTER   4 CYCLES          *
               *****************************************************

Setting up the final grid:

General Integration Accuracy     IntAcc      ...  4.670
Radial Grid Type                 RadialGrid  ... Gauss-Chebyshev
Angular Grid (max. acc.)         AngularGrid ... Lebedev-302
Angular grid pruning method      GridPruning ... 3 (G Style)
Weight generation scheme         WeightScheme... Becke
Basis function cutoff            BFCut       ...    1.0000e-11
Integration weight cutoff        WCut        ...    1.0000e-14
Grids for H and He will be reduced by one unit

# of grid points (after initial pruning)     ...  29404 (   0.0 sec)
# of grid points (after weights+screening)   ...  28578 (   0.0 sec)
nearest neighbour list constructed           ...    0.0 sec
Grid point re-assignment to atoms done       ...    0.0 sec
Grid point division into batches done        ...    0.1 sec
Reduced shell lists constructed in    0.1 sec

Total number of grid points                  ...    28578
Total number of batches                      ...      449
Average number of points per batch           ...       63
Average number of grid points per atom       ...     4763
Average number of shells per batch           ...    17.30 (59.65%)
Average number of basis functions per batch  ...    34.91 (57.23%)
Average number of large shells per batch     ...    15.07 (87.12%)
Average number of large basis fcns per batch ...    30.63 (87.74%)
Maximum spatial batch extension              ...  16.65, 20.64, 19.55 au
Average spatial batch extension              ...   0.96,  1.13,  1.10 au

Final grid set up in    0.1 sec
Final integration                            ... done (   0.0 sec)
Change in XC energy                          ...     0.000040686
Integrated number of electrons               ...    35.999991378
Previous integrated no of electrons          ...    35.997168101
Old exchange energy                            =    -11.030306120 Eh
New exchange energy                            =    -11.030059156 Eh
Exchange energy change after final integration =      0.000246964 Eh
Total energy after final integration           =   -599.437274240 Eh
Final COS-X integration done in                =     0.079 sec

----------------
TOTAL SCF ENERGY
----------------

Total Energy       :         -599.43727424 Eh          -16311.51749 eV

Components:
Nuclear Repulsion  :           82.50679203 Eh            2245.12395 eV
Electronic Energy  :         -681.94406627 Eh          -18556.64144 eV
One Electron Energy:        -1001.29366011 Eh          -27246.58568 eV
Two Electron Energy:          319.34959384 Eh            8689.94424 eV

Virial components:
Potential Energy   :        -1197.22315225 Eh          -32578.09821 eV
Kinetic Energy     :          597.78587801 Eh           16266.58072 eV
Virial Ratio       :            2.00276252


DFT components:
N(Alpha)           :       17.999995688894 electrons
N(Beta)            :       17.999995688894 electrons
N(Total)           :       35.999991377787 electrons
E(X)               :      -32.925325615854 Eh       
E(C)               :       -1.292047809148 Eh       
E(XC)              :      -34.217373425002 Eh       
DFET-embed. en.    :        0.000000000000 Eh       

---------------
SCF CONVERGENCE
---------------

  Last Energy change         ...    2.8194e-11  Tolerance :   1.0000e-08
  Last MAX-Density change    ...    6.2172e-15  Tolerance :   1.0000e-07
  Last RMS-Density change    ...    1.5626e-16  Tolerance :   5.0000e-09
  Last Orbital Gradient      ...    7.2523e-07  Tolerance :   1.0000e-05
  Last Orbital Rotation      ...    8.2226e-07  Tolerance :   1.0000e-05

             **** THE GBW FILE WAS UPDATED (ts_guess_hess_forwards_orca.gbw) ****
             **** DENSITY FILE WAS UPDATED (ts_guess_hess_forwards_orca.scfp) ****
             **** ENERGY FILE WAS UPDATED (ts_guess_hess_forwards_orca.en.tmp) ****
             **** THE GBW FILE WAS UPDATED (ts_guess_hess_forwards_orca.gbw) ****
             **** DENSITY FILE WAS UPDATED (ts_guess_hess_forwards_orca.scfp) ****
----------------
ORBITAL ENERGIES
----------------

  NO   OCC          E(Eh)            E(eV) 
   0   2.0000    -101.304746     -2756.6423 
   1   2.0000     -24.586058      -669.0207 
   2   2.0000     -10.120903      -275.4038 
   3   2.0000      -9.152014      -249.0390 
   4   2.0000      -6.888073      -187.4340 
   5   2.0000      -6.887520      -187.4190 
   6   2.0000      -6.887501      -187.4184 
   7   2.0000      -1.030116       -28.0309 
   8   2.0000      -0.530829       -14.4446 
   9   2.0000      -0.453663       -12.3448 
  10   2.0000      -0.331447        -9.0191 
  11   2.0000      -0.318640        -8.6706 
  12   2.0000      -0.318032        -8.6541 
  13   2.0000      -0.184402        -5.0178 
  14   2.0000      -0.183729        -4.9995 
  15   2.0000       0.001512         0.0411 
  16   2.0000       0.003957         0.1077 
  17   2.0000       0.004164         0.1133 
  18   0.0000       0.257384         7.0038 
  19   0.0000       0.316985         8.6256 
  20   0.0000       0.319191         8.6856 
  21   0.0000       0.324336         8.8256 
  22   0.0000       0.627989        17.0885 
  23   0.0000       0.629309        17.1244 
  24   0.0000       0.656672        17.8690 
  25   0.0000       0.781352        21.2617 
  26   0.0000       0.822268        22.3751 
  27   0.0000       0.834733        22.7142 
  28   0.0000       0.835705        22.7407 
  29   0.0000       0.918648        24.9977 
  30   0.0000       1.139949        31.0196 
  31   0.0000       1.140020        31.0215 
  32   0.0000       1.144855        31.1531 
  33   0.0000       1.145750        31.1774 
  34   0.0000       1.158476        31.5237 
  35   0.0000       1.206027        32.8177 
  36   0.0000       1.208014        32.8717 
  37   0.0000       1.266234        34.4560 
  38   0.0000       1.267731        34.4967 
  39   0.0000       1.328566        36.1521 
  40   0.0000       1.400358        38.1057 
  41   0.0000       1.540093        41.9081 
  42   0.0000       1.541326        41.9416 
  43   0.0000       1.710872        46.5552 
  44   0.0000       1.877187        51.0809 
  45   0.0000       1.922459        52.3128 
  46   0.0000       1.924935        52.3801 
  47   0.0000       2.060912        56.0803 
  48   0.0000       2.062296        56.1179 
  49   0.0000       2.152575        58.5746 
  50   0.0000       2.419635        65.8416 
  51   0.0000       2.523625        68.6713 
  52   0.0000       2.524109        68.6845 
  53   0.0000       2.848846        77.5210 
  54   0.0000       3.027607        82.3854 
  55   0.0000       3.029810        82.4453 
  56   0.0000       3.285894        89.4137 
  57   0.0000       3.288052        89.4724 
  58   0.0000       3.527002        95.9746 
  59   0.0000       3.528122        96.0051 
  60   0.0000       3.928638       106.9037 

                    ********************************
                    * MULLIKEN POPULATION ANALYSIS *
                    ********************************

-----------------------
MULLIKEN ATOMIC CHARGES
-----------------------
   0 F :   -0.352500
   1 Cl:   -0.877039
   2 C :    0.189877
   3 H :    0.012281
   4 H :    0.011174
   5 H :    0.016207
Sum of atomic charges:   -1.0000000

--------------------------------
MULLIKEN REDUCED ORBITAL CHARGES
--------------------------------
  0 F s       :     3.921344  s :     3.921344
      pz      :     1.951800  p :     5.424770
      px      :     1.520884
      py      :     1.952087
      dz2     :     0.000870  d :     0.006386
      dxz     :     0.001455
      dyz     :     0.000009
      dx2y2   :     0.002599
      dxy     :     0.001453
  1 Cls       :     5.994694  s :     5.994694
      pz      :     3.981837  p :    11.882061
      px      :     3.921666
      py      :     3.978558
      dz2     :     0.000038  d :     0.000284
      dxz     :     0.000066
      dyz     :     0.000003
      dx2y2   :     0.000098
      dxy     :     0.000080
  2 C s       :     3.041750  s :     3.041750
      pz      :     1.059213  p :     2.710230
      px      :     0.581836
      py      :     1.069181
      dz2     :     0.009441  d :     0.058143
      dxz     :     0.012282
      dyz     :     0.004805
      dx2y2   :     0.019219
      dxy     :     0.012396
  3 H s       :     0.963415  s :     0.963415
      pz      :     0.011119  p :     0.024304
      px      :     0.005901
      py      :     0.007283
  4 H s       :     0.964565  s :     0.964565
      pz      :     0.010891  p :     0.024260
      px      :     0.006368
      py      :     0.007001
  5 H s       :     0.959074  s :     0.959074
      pz      :     0.005239  p :     0.024719
      px      :     0.006722
      py      :     0.012758


                     *******************************
                     * LOEWDIN POPULATION ANALYSIS *
                     *******************************

----------------------
LOEWDIN ATOMIC CHARGES
----------------------
   0 F :   -0.212488
   1 Cl:   -0.861626
   2 C :    0.065716
   3 H :    0.002769
   4 H :    0.002847
   5 H :    0.002782

-------------------------------
LOEWDIN REDUCED ORBITAL CHARGES
-------------------------------
  0 F s       :     3.755641  s :     3.755641
      pz      :     1.946869  p :     5.447159
      px      :     1.553040
      py      :     1.947250
      dz2     :     0.001387  d :     0.009687
      dxz     :     0.002066
      dyz     :     0.000011
      dx2y2   :     0.004150
      dxy     :     0.002074
  1 Cls       :     5.986839  s :     5.986839
      pz      :     3.985197  p :    11.874559
      px      :     3.906500
      py      :     3.982862
      dz2     :     0.000019  d :     0.000228
      dxz     :     0.000072
      dyz     :     0.000005
      dx2y2   :     0.000041
      dxy     :     0.000091
  2 C s       :     2.878318  s :     2.878318
      pz      :     1.100103  p :     2.919502
      px      :     0.714135
      py      :     1.105264
      dz2     :     0.022346  d :     0.136464
      dxz     :     0.029238
      dyz     :     0.012742
      dx2y2   :     0.042546
      dxy     :     0.029591
  3 H s       :     0.929311  s :     0.929311
      pz      :     0.033012  p :     0.067921
      px      :     0.014630
      py      :     0.020279
  4 H s       :     0.929541  s :     0.929541
      pz      :     0.032301  p :     0.067611
      px      :     0.016122
      py      :     0.019189
  5 H s       :     0.928067  s :     0.928067
      pz      :     0.013038  p :     0.069150
      px      :     0.016837
      py      :     0.039275


                      *****************************
                      * MAYER POPULATION ANALYSIS *
                      *****************************

  NA   - Mulliken gross atomic population
  ZA   - Total nuclear charge
  QA   - Mulliken gross atomic charge
  VA   - Mayer's total valence
  BVA  - Mayer's bonded valence
  FA   - Mayer's free valence

  ATOM       NA         ZA         QA         VA         BVA        FA
  0 F      9.3525     9.0000    -0.3525     0.9285     0.9285    -0.0000
  1 Cl    17.8770    17.0000    -0.8770     0.2406     0.2406    -0.0000
  2 C      5.8101     6.0000     0.1899     3.8375     3.8375     0.0000
  3 H      0.9877     1.0000     0.0123     1.0375     1.0375    -0.0000
  4 H      0.9888     1.0000     0.0112     1.0355     1.0355    -0.0000
  5 H      0.9838     1.0000     0.0162     1.0451     1.0451     0.0000

  Mayer bond orders larger than 0.100000
B(  0-F ,  2-C ) :   0.8871 B(  2-C ,  3-H ) :   0.9715 B(  2-C ,  4-H ) :   0.9724 
B(  2-C ,  5-H ) :   0.9679 


------------------
HIRSHFELD ANALYSIS
------------------

Total integrated alpha density =     17.998584051
Total integrated beta density  =     17.998584051

  ATOM     CHARGE      SPIN    
   0 F   -0.216689    0.000000
   1 Cl  -0.849297    0.000000
   2 C    0.013857    0.000000
   3 H    0.018098    0.000000
   4 H    0.018211    0.000000
   5 H    0.018652    0.000000

  TOTAL  -0.997168    0.000000

-------
TIMINGS
-------

Total SCF time: 0 days 0 hours 0 min 1 sec 

Total time                  ....       1.091 sec
Sum of individual times     ....       1.007 sec  ( 92.3%)

Fock matrix formation       ....       0.790 sec  ( 72.4%)
  Split-RI-J                ....       0.415 sec  ( 52.5% of F)
  Chain of spheres X        ....       0.326 sec  ( 41.3% of F)
  COS-X 1 center corr.      ....       0.000 sec  (  0.0% of F)
  XC integration            ....       0.041 sec  (  5.2% of F)
    Basis function eval.    ....       0.012 sec  ( 29.3% of XC)
    Density eval.           ....       0.007 sec  ( 17.9% of XC)
    XC-Functional eval.     ....       0.006 sec  ( 14.8% of XC)
    XC-Potential eval.      ....       0.008 sec  ( 19.8% of XC)
Diagonalization             ....       0.000 sec  (  0.0%)
Density matrix formation    ....       0.000 sec  (  0.0%)
Population analysis         ....       0.008 sec  (  0.7%)
Initial guess               ....       0.001 sec  (  0.1%)
Orbital Transformation      ....       0.000 sec  (  0.0%)
Orbital Orthonormalization  ....       0.000 sec  (  0.0%)
DIIS solution               ....       0.000 sec  (  0.0%)
SOSCF solution              ....       0.001 sec  (  0.1%)
Grid generation             ....       0.207 sec  ( 18.9%)


-------------------------------------------------------------------------------
                          DFT DISPERSION CORRECTION                            
                                                                               
                              DFTD3 V3.1  Rev 1                                
                          USING Becke-Johnson damping                          
-------------------------------------------------------------------------------
The PBE0 functional is recognized
Active option DFTDOPT                   ...         4   

molecular C6(AA) [au] = 469.715602 


            DFT-D V3
 parameters
 s6 scaling factor         :     1.0000 
 a1 scaling factor         :     0.4145 
 s8 scaling factor         :     1.2177 
 a2 scaling factor         :     4.8593 
 ad hoc parameters k1-k3   :    16.0000     1.3333    -4.0000 

 Edisp/kcal,au: -1.356784213175  -0.002162173042 
 E6   /kcal   :  -0.855896873 
 E8   /kcal   :  -0.500887340 
 % E8         :  36.917244104 

-------------------------   ----------------
Dispersion correction           -0.002162173
-------------------------   ----------------


-------------------------   --------------------
FINAL SINGLE POINT ENERGY      -599.439436413358
-------------------------   --------------------

                                *** OPTIMIZATION RUN DONE ***

                            ***************************************
                            *     ORCA property calculations      *
                            ***************************************

                                    ---------------------
                                    Active property flags
                                    ---------------------
   (+) Dipole Moment


------------------------------------------------------------------------------
                       ORCA ELECTRIC PROPERTIES CALCULATION
------------------------------------------------------------------------------

Dipole Moment Calculation                       ... on
Quadrupole Moment Calculation                   ... off
Polarizability Calculation                      ... off
GBWName                                         ... ts_guess_hess_forwards_orca.gbw
Electron density file                           ... ts_guess_hess_forwards_orca.scfp
The origin for moment calculation is the CENTER OF MASS  = ( 0.121144,  0.083866 -0.025444)

-------------
DIPOLE MOMENT
-------------
                                X             Y             Z
Electronic contribution:      0.30661       0.10843      -0.03894
Nuclear contribution   :     -2.31666      -0.17043       0.12349
                        -----------------------------------------
Total Dipole Moment    :     -2.01005      -0.06200       0.08456
                        -----------------------------------------
Magnitude (a.u.)       :      2.01278
Magnitude (Debye)      :      5.11608



--------------------
Rotational spectrum 
--------------------
 
Rotational constants in cm-1:     5.288213     0.062709     0.062707 
Rotational constants in MHz : 158536.630691  1879.981208  1879.899852 

 Dipole components along the rotational axes: 
x,y,z [a.u.] :    -2.012667    -0.021250    -0.002660 
x,y,z [Debye]:    -5.115793    -0.054012    -0.006761 

 

Timings for individual modules:

Sum of individual times         ...       49.421 sec (=   0.824 min)
GTO integral calculation        ...        4.583 sec (=   0.076 min)   9.3 %
SCF iterations                  ...       33.436 sec (=   0.557 min)  67.7 %
SCF Gradient evaluation         ...       10.780 sec (=   0.180 min)  21.8 %
Geometry relaxation             ...        0.622 sec (=   0.010 min)   1.3 %
                             ****ORCA TERMINATED NORMALLY****
TOTAL RUN TIME: 0 days 0 hours 0 minutes 50 seconds 516 msec
