
                                 *****************
                                 * O   R   C   A *
                                 *****************

           --- An Ab Initio, DFT and Semiempirical electronic structure package ---

                  #######################################################
                  #                        -***-                        #
                  #          Department of theory and spectroscopy      #
                  #               Directorship: Frank Neese             #
                  #        Max Planck Institute fuer Kohlenforschung    #
                  #                Kaiser Wilhelm Platz 1               #
                  #                 D-45470 Muelheim/Ruhr               #
                  #                      Germany                        #
                  #                                                     #
                  #                  All rights reserved                #
                  #                        -***-                        #
                  #######################################################


                         Program Version 4.2.1 -  RELEASE  -


 With contributions from (in alphabetic order):
   Daniel Aravena         : Magnetic Suceptibility
   Michael Atanasov       : Ab Initio Ligand Field Theory (pilot matlab implementation)
   Alexander A. Auer      : GIAO ZORA, VPT2
   Ute Becker             : Parallelization
   Giovanni Bistoni       : ED, misc. LED, open-shell LED, HFLD
   Martin Brehm           : Molecular dynamics
   Dmytro Bykov           : SCF Hessian
   Vijay G. Chilkuri      : MRCI spin determinant printing, contributions to CSF-ICE
   Dipayan Datta          : RHF DLPNO-CCSD density
   Achintya Kumar Dutta   : EOM-CC, STEOM-CC
   Dmitry Ganyushin       : Spin-Orbit,Spin-Spin,Magnetic field MRCI
   Miquel Garcia          : C-PCM Hessian, Gaussian charge scheme
   Yang Guo               : DLPNO-NEVPT2, CIM, IAO-localization
   Andreas Hansen         : Spin unrestricted coupled pair/coupled cluster methods
   Benjamin Helmich-Paris : CASSCF linear response (MC-RPA)
   Lee Huntington         : MR-EOM, pCC
   Robert Izsak           : Overlap fitted RIJCOSX, COSX-SCS-MP3, EOM
   Christian Kollmar      : KDIIS, OOCD, Brueckner-CCSD(T), CCSD density
   Simone Kossmann        : Meta GGA functionals, TD-DFT gradient, OOMP2, MP2 Hessian
   Martin Krupicka        : AUTO-CI
   Lucas Lang             : DCDCAS
   Dagmar Lenk            : GEPOL surface, SMD
   Dimitrios Liakos       : Extrapolation schemes; Compound Job, initial MDCI parallelization
   Dimitrios Manganas     : Further ROCIS development; embedding schemes
   Dimitrios Pantazis     : SARC Basis sets
   Taras Petrenko         : DFT Hessian,TD-DFT gradient, ASA, ECA, R-Raman, ABS, FL, XAS/XES, NRVS
   Peter Pinski           : DLPNO-MP2, DLPNO-MP2 Gradient
   Christoph Reimann      : Effective Core Potentials
   Marius Retegan         : Local ZFS, SOC
   Christoph Riplinger    : Optimizer, TS searches, QM/MM, DLPNO-CCSD(T), (RO)-DLPNO pert. Triples
   Tobias Risthaus        : Range-separated hybrids, TD-DFT gradient, RPA, STAB
   Michael Roemelt        : Original ROCIS implementation
   Masaaki Saitow         : Open-shell DLPNO-CCSD energy and density
   Barbara Sandhoefer     : DKH picture change effects
   Avijit Sen             : IP-ROCIS
   Kantharuban Sivalingam : CASSCF convergence, NEVPT2, FIC-MRCI
   Bernardo de Souza      : ESD, SOC TD-DFT
   Georgi Stoychev        : AutoAux, RI-MP2 NMR
   Willem Van den Heuvel  : Paramagnetic NMR
   Boris Wezisla          : Elementary symmetry handling
   Frank Wennmohs         : Technical directorship


 We gratefully acknowledge several colleagues who have allowed us to
 interface, adapt or use parts of their codes:
   Stefan Grimme, W. Hujo, H. Kruse,             : VdW corrections, initial TS optimization,
                  C. Bannwarth                     DFT functionals, gCP, sTDA/sTD-DF
   Ed Valeev, F. Pavosevic, A. Kumar             : LibInt (2-el integral package), F12 methods
   Garnet Chan, S. Sharma, J. Yang, R. Olivares  : DMRG
   Ulf Ekstrom                                   : XCFun DFT Library
   Mihaly Kallay                                 : mrcc  (arbitrary order and MRCC methods)
   Andreas Klamt, Michael Diedenhofen            : otool_cosmo (COSMO solvation model)
   Jiri Pittner, Ondrej Demel                    : Mk-CCSD
   Frank Weinhold                                : gennbo (NPA and NBO analysis)
   Christopher J. Cramer and Donald G. Truhlar   : smd solvation model
   Lars Goerigk                                  : TD-DFT with DH, B97 family of functionals
   V. Asgeirsson, H. Jonsson                     : NEB implementation
   FAccTs GmbH                                   : IRC, NEB, NEB-TS, Multilevel, MM, QM/MM, CI optimization
   S Lehtola, MJT Oliveira, MAL Marques          : LibXC Library


 Your calculation uses the libint2 library for the computation of 2-el integrals
 For citations please refer to: http://libint.valeyev.net

 Your ORCA version has been built with support for libXC version: 4.2.3
 For citations please refer to: https://tddft.org/programs/libxc/

 This ORCA versions uses:
   CBLAS   interface :  Fast vector & matrix operations
   LAPACKE interface :  Fast linear algebra routines
   SCALAPACK package :  Parallel linear algebra routines


Your calculation utilizes the atom-pairwise dispersion correction
with the Becke-Johnson damping scheme (D3BJ)
Cite in your paper:
S.Grimme, S.Ehrlich, L.Goerigk, J Comput Chem, (2011), 32, 1456–1465 
S.Grimme, J.Antony, S.Ehrlich and H.Krieg, J.Chem.Phys., 132, (2010), 154104 
   

----- Orbital basis set information -----
Your calculation utilizes the basis: def2-SVP
   F. Weigend and R. Ahlrichs, Phys. Chem. Chem. Phys. 7, 3297 (2005).

----- AuxJ basis set information -----
Your calculation utilizes the auxiliary basis: def2/J
   F. Weigend, Phys. Chem. Chem. Phys. 8, 1057 (2006).

================================================================================
                                        WARNINGS
                       Please study these warnings very carefully!
================================================================================


WARNING: Geometry Optimization
  ===> : Switching off AutoStart
         For restart on a previous wavefunction, please use MOREAD

INFO   : the flag for use of LIBINT has been found!

================================================================================
                                       INPUT FILE
================================================================================
NAME = ts_guess_hess_backwards_orca.inp
|  1> ! Opt PBE0 RIJCOSX D3BJ def2-SVP def2/J
|  2> %geom MaxIter 100 end
|  3> %output 
|  4> xyzfile=True 
|  5> end 
|  6> %scf 
|  7> maxiter 250 
|  8> end
|  9> %output
| 10> Print[P_Hirshfeld] = 1
| 11> end
| 12> % maxcore
| 13> 4000
| 14> *xyz -1 1
| 15> F   -2.93516800  -0.00470500   0.10518000 
| 16> Cl   1.35023100   0.05634400  -0.05742400 
| 17> C    0.17673200  -0.01903600  -0.00454300 
| 18> H   -0.98429400  -0.57228700  -0.80050300 
| 19> H   -0.89282800  -0.53198300   0.91056700 
| 20> H   -1.11398700   0.91325000   0.02578000 
| 21> *
| 22> 
| 23>                          ****END OF INPUT****
================================================================================

                       *****************************
                       * Geometry Optimization Run *
                       *****************************

Geometry optimization settings:
Update method            Update   .... BFGS
Choice of coordinates    CoordSys .... Z-matrix Internals
Initial Hessian          InHess   .... Almoef's Model

Convergence Tolerances:
Energy Change            TolE     ....  5.0000e-06 Eh
Max. Gradient            TolMAXG  ....  3.0000e-04 Eh/bohr
RMS Gradient             TolRMSG  ....  1.0000e-04 Eh/bohr
Max. Displacement        TolMAXD  ....  4.0000e-03 bohr
RMS Displacement         TolRMSD  ....  2.0000e-03 bohr
Strict Convergence                ....  False
------------------------------------------------------------------------------
                        ORCA OPTIMIZATION COORDINATE SETUP
------------------------------------------------------------------------------

The optimization will be done in new redundant internal coordinates
Making redundant internal coordinates   ...  (new redundants) done
Evaluating the initial hessian          ...  (Almloef) done
Evaluating the coordinates              ...  done
Calculating the B-matrix                .... done
Calculating the G-matrix                .... done
Diagonalizing the G-matrix              .... done
The first mode is                       ....   39
The number of degrees of freedom        ....   12

    -----------------------------------------------------------------
                    Redundant Internal Coordinates


    -----------------------------------------------------------------
         Definition                    Initial Value    Approx d2E/dq
    -----------------------------------------------------------------
      1. B(C   2,Cl  1)                  1.1771         3.064738   
      2. B(H   3,C   2)                  1.5125         0.076273   
      3. B(H   4,C   2)                  1.4982         0.080394   
      4. B(H   4,H   3)                  1.7140         0.006965   
      5. B(H   5,C   2)                  1.5925         0.056850   
      6. B(H   5,H   4)                  1.7089         0.007096   
      7. B(H   5,H   3)                  1.7048         0.007204   
      8. B(H   5,F   0)                  2.0410         0.009108   
      9. A(Cl  1,C   2,H   3)          139.9121         0.371050   
     10. A(Cl  1,C   2,H   5)          140.4784         0.352898   
     11. A(H   3,C   2,H   4)           69.4020         0.190170   
     12. A(H   4,C   2,H   5)           67.0568         0.183659   
     13. A(H   3,C   2,H   5)           66.5468         0.182538   
     14. A(Cl  1,C   2,H   4)          139.5606         0.374429   
     15. A(C   2,H   3,H   4)           54.9054         0.135504   
     16. A(H   4,H   3,H   5)           59.9813         0.110798   
     17. A(C   2,H   3,H   5)           58.9752         0.135861   
     18. A(C   2,H   4,H   5)           59.1089         0.136260   
     19. A(H   3,H   4,H   5)           59.7429         0.110724   
     20. A(C   2,H   4,H   3)           55.6926         0.136062   
     21. A(C   2,H   5,H   3)           54.4780         0.132845   
     22. A(F   0,H   5,H   3)           72.2314         0.117402   
     23. A(C   2,H   5,H   4)           53.8344         0.132695   
     24. A(F   0,H   5,H   4)           73.4397         0.117304   
     25. A(H   3,H   5,H   4)           60.2758         0.110890   
     26. A(F   0,H   5,C   2)          117.4293         0.145692   
     27. D(H   4,H   3,C   2,H   5)    -73.0887         0.005131   
     28. D(H   5,H   3,C   2,H   4)     73.0887         0.005131   
     29. D(H   4,H   3,C   2,Cl  1)    144.6958         0.005131   
     30. D(H   5,H   3,C   2,Cl  1)   -142.2155         0.005131   
     31. D(H   3,H   4,C   2,Cl  1)   -144.9880         0.005574   
     32. D(H   5,H   4,C   2,Cl  1)    142.6266         0.005574   
     33. D(C   2,H   4,H   3,H   5)    -71.2451         0.002008   
     34. D(H   3,H   4,C   2,H   5)     72.3854         0.005574   
     35. D(H   5,H   4,C   2,H   3)    -72.3854         0.005574   
     36. D(H   5,H   4,H   3,C   2)     71.2451         0.002008   
     37. D(H   4,H   5,C   2,Cl  1)   -141.7776         0.003572   
     38. D(F   0,H   5,C   2,H   3)     37.5383         0.003572   
     39. D(H   3,H   5,H   4,C   2)     65.7082         0.002076   
     40. D(H   4,H   5,C   2,H   3)     76.5388         0.003572   
     41. D(C   2,H   5,H   4,H   3)    -65.7082         0.002076   
     42. D(F   0,H   5,C   2,H   4)    -39.0005         0.003572   
     43. D(F   0,H   5,C   2,Cl  1)    179.2219         0.003572   
     44. D(H   4,H   5,H   3,C   2)    -64.7017         0.002095   
     45. D(C   2,H   5,H   3,H   4)     64.7017         0.002095   
     46. D(F   0,H   5,H   3,H   4)    -80.6954         0.002095   
     47. D(F   0,H   5,H   4,C   2)    144.3558         0.002076   
     48. D(F   0,H   5,H   4,H   3)     78.6476         0.002076   
     49. D(F   0,H   5,H   3,C   2)   -145.3971         0.002095   
     50. D(H   3,H   5,C   2,H   4)    -76.5388         0.003572   
     51. D(H   3,H   5,C   2,Cl  1)    141.6836         0.003572   
    -----------------------------------------------------------------

Number of atoms                         .... 6
Number of degrees of freedom            .... 51

         *************************************************************
         *                GEOMETRY OPTIMIZATION CYCLE   1            *
         *************************************************************
---------------------------------
CARTESIAN COORDINATES (ANGSTROEM)
---------------------------------
  F     -2.935168   -0.004705    0.105180
  Cl     1.350231    0.056344   -0.057424
  C      0.176732   -0.019036   -0.004543
  H     -0.984294   -0.572287   -0.800503
  H     -0.892828   -0.531983    0.910567
  H     -1.113987    0.913250    0.025780

----------------------------
CARTESIAN COORDINATES (A.U.)
----------------------------
  NO LB      ZA    FRAG     MASS         X           Y           Z
   0 F     9.0000    0    18.998   -5.546664   -0.008891    0.198761
   1 Cl   17.0000    0    35.453    2.551567    0.106475   -0.108516
   2 C     6.0000    0    12.011    0.333975   -0.035973   -0.008585
   3 H     1.0000    0     1.008   -1.860046   -1.081466   -1.512731
   4 H     1.0000    0     1.008   -1.687200   -1.005302    1.720722
   5 H     1.0000    0     1.008   -2.105130    1.725792    0.048717

--------------------------------
INTERNAL COORDINATES (ANGSTROEM)
--------------------------------
 F      0   0   0     0.000000000000     0.00000000     0.00000000
 Cl     1   0   0     4.288917302819     0.00000000     0.00000000
 C      2   1   0     1.177105962759     2.88488987     0.00000000
 H      3   2   1     1.512488136574   139.91205246   111.41869524
 H      3   2   4     1.498165388236   139.56056966   123.48753351
 H      3   2   5     1.592492451187   140.47838099   118.54983054

---------------------------
INTERNAL COORDINATES (A.U.)
---------------------------
 F      0   0   0     0.000000000000     0.00000000     0.00000000
 Cl     1   0   0     8.104879113364     0.00000000     0.00000000
 C      2   1   0     2.224407900220     2.88488987     0.00000000
 H      3   2   1     2.858188358930   139.91205246   111.41869524
 H      3   2   4     2.831122287086   139.56056966   123.48753351
 H      3   2   5     3.009374603079   140.47838099   118.54983054

---------------------
BASIS SET INFORMATION
---------------------
There are 4 groups of distinct atoms

 Group   1 Type F   : 7s4p1d contracted to 3s2p1d pattern {511/31/1}
 Group   2 Type Cl  : 10s7p1d contracted to 4s3p1d pattern {5311/511/1}
 Group   3 Type C   : 7s4p1d contracted to 3s2p1d pattern {511/31/1}
 Group   4 Type H   : 4s1p contracted to 2s1p pattern {31/1}

Atom   0F    basis set group =>   1
Atom   1Cl   basis set group =>   2
Atom   2C    basis set group =>   3
Atom   3H    basis set group =>   4
Atom   4H    basis set group =>   4
Atom   5H    basis set group =>   4
---------------------------------
AUXILIARY/J BASIS SET INFORMATION
---------------------------------
There are 4 groups of distinct atoms

 Group   1 Type F   : 12s5p4d2f1g contracted to 6s4p3d1f1g pattern {711111/2111/211/2/1}
 Group   2 Type Cl  : 14s5p5d2f1g contracted to 8s4p3d1f1g pattern {71111111/2111/311/2/1}
 Group   3 Type C   : 12s5p4d2f1g contracted to 6s4p3d1f1g pattern {711111/2111/211/2/1}
 Group   4 Type H   : 5s2p1d contracted to 3s1p1d pattern {311/2/1}

Atom   0F    basis set group =>   1
Atom   1Cl   basis set group =>   2
Atom   2C    basis set group =>   3
Atom   3H    basis set group =>   4
Atom   4H    basis set group =>   4
Atom   5H    basis set group =>   4
------------------------------------------------------------------------------
                           ORCA GTO INTEGRAL CALCULATION
                           -- RI-GTO INTEGRALS CHOSEN --
------------------------------------------------------------------------------

                         BASIS SET STATISTICS AND STARTUP INFO

Gaussian basis set:
 # of primitive gaussian shells          ...   57
 # of primitive gaussian functions       ...  105
 # of contracted shells                  ...   29
 # of contracted basis functions         ...   61
 Highest angular momentum                ...    2
 Maximum contraction depth               ...    5
Auxiliary gaussian basis set:
 # of primitive gaussian shells          ...   99
 # of primitive gaussian functions       ...  265
 # of contracted shells                  ...   62
 # of contracted aux-basis functions     ...  182
 Highest angular momentum                ...    4
 Maximum contraction depth               ...    7
Ratio of auxiliary to basis functions    ...  2.98
Integral package used                  ... LIBINT
 One Electron integrals                  ... done
 Ordering auxiliary basis shells         ... done
 Integral threshhold             Thresh  ...  2.500e-11
 Primitive cut-off               TCut    ...  2.500e-12
 Pre-screening matrix                    ... done
 Shell pair data                         ... 
 Ordering of the shell pairs             ... done (   0.000 sec) 415 of 435 pairs
 Determination of significant pairs      ... done (   0.000 sec)
 Creation of shell pair data             ... done (   0.000 sec)
 Storage of shell pair data              ... done (   0.000 sec)
 Shell pair data done in (   0.000 sec)
 Computing two index integrals           ... done
 Cholesky decomposition of the V-matrix  ... done


Timings:
 Total evaluation time                   ...   0.064 sec (  0.001 min)
 One electron matrix time                ...   0.003 sec (  0.000 min) =  4.0%
 Schwartz matrix evaluation time         ...   0.048 sec (  0.001 min) = 75.4%
 Two index repulsion integral time       ...   0.001 sec (  0.000 min) =  0.8%
 Cholesky decomposition of V             ...   0.000 sec (  0.000 min) =  0.6%
 Three index repulsion integral time     ...   0.000 sec (  0.000 min) =  0.0%

-------------------------------------------------------------------------------
                                 ORCA SCF
-------------------------------------------------------------------------------

------------
SCF SETTINGS
------------
Hamiltonian:
 Density Functional     Method          .... DFT(GTOs)
 Exchange Functional    Exchange        .... PBE
   PBE kappa parameter   XKappa         ....  0.804000
   PBE mue parameter    XMuePBE         ....  0.219520
 Correlation Functional Correlation     .... PBE
   PBE beta parameter  CBetaPBE         ....  0.066725
 LDA part of GGA corr.  LDAOpt          .... PW91-LDA
 Gradients option       PostSCFGGA      .... off
 Hybrid DFT is turned on
   Fraction HF Exchange ScalHFX         ....  0.250000
   Scaling of DF-GGA-X  ScalDFX         ....  0.750000
   Scaling of DF-GGA-C  ScalDFC         ....  1.000000
   Scaling of DF-LDA-C  ScalLDAC        ....  1.000000
   Perturbative correction              ....  0.000000
   Density functional embedding theory  .... OFF
   NL short-range parameter             ....  6.900000
 RI-approximation to the Coulomb term is turned on
   Number of auxiliary basis functions  .... 182
   RIJ-COSX (HFX calculated with COS-X)).... on


General Settings:
 Integral files         IntName         .... ts_guess_hess_backwards_orca
 Hartree-Fock type      HFTyp           .... RHF
 Total Charge           Charge          ....   -1
 Multiplicity           Mult            ....    1
 Number of Electrons    NEL             ....   36
 Basis Dimension        Dim             ....   61
 Nuclear Repulsion      ENuc            ....     98.2173060985 Eh

Convergence Acceleration:
 DIIS                   CNVDIIS         .... on
   Start iteration      DIISMaxIt       ....    12
   Startup error        DIISStart       ....  0.200000
   # of expansion vecs  DIISMaxEq       ....     5
   Bias factor          DIISBfac        ....   1.050
   Max. coefficient     DIISMaxC        ....  10.000
 Newton-Raphson         CNVNR           .... off
 SOSCF                  CNVSOSCF        .... on
   Start iteration      SOSCFMaxIt      ....   150
   Startup grad/error   SOSCFStart      ....  0.003300
 Level Shifting         CNVShift        .... on
   Level shift para.    LevelShift      ....    0.2500
   Turn off err/grad.   ShiftErr        ....    0.0010
 Zerner damping         CNVZerner       .... off
 Static damping         CNVDamp         .... on
   Fraction old density DampFac         ....    0.7000
   Max. Damping (<1)    DampMax         ....    0.9800
   Min. Damping (>=0)   DampMin         ....    0.0000
   Turn off err/grad.   DampErr         ....    0.1000
 Fernandez-Rico         CNVRico         .... off

SCF Procedure:
 Maximum # iterations   MaxIter         ....   250
 SCF integral mode      SCFMode         .... Direct
   Integral package                     .... LIBINT
 Reset frequency        DirectResetFreq ....    20
 Integral Threshold     Thresh          ....  2.500e-11 Eh
 Primitive CutOff       TCut            ....  2.500e-12 Eh

Convergence Tolerance:
 Convergence Check Mode ConvCheckMode   .... Total+1el-Energy
 Convergence forced     ConvForced      .... 0
 Energy Change          TolE            ....  1.000e-08 Eh
 1-El. energy change                    ....  1.000e-05 Eh
 Orbital Gradient       TolG            ....  1.000e-05
 Orbital Rotation angle TolX            ....  1.000e-05
 DIIS Error             TolErr          ....  5.000e-07


Diagonalization of the overlap matrix:
Smallest eigenvalue                        ... 3.104e-03
Time for diagonalization                   ...    0.001 sec
Threshold for overlap eigenvalues          ... 1.000e-08
Number of eigenvalues below threshold      ... 0
Time for construction of square roots      ...    0.000 sec
Total time needed                          ...    0.001 sec

-------------------
DFT GRID GENERATION
-------------------

General Integration Accuracy     IntAcc      ...  4.340
Radial Grid Type                 RadialGrid  ... Gauss-Chebyshev
Angular Grid (max. acc.)         AngularGrid ... Lebedev-110
Angular grid pruning method      GridPruning ... 3 (G Style)
Weight generation scheme         WeightScheme... Becke
Basis function cutoff            BFCut       ...    1.0000e-11
Integration weight cutoff        WCut        ...    1.0000e-14
Grids for H and He will be reduced by one unit

# of grid points (after initial pruning)     ...   7622 (   0.0 sec)
# of grid points (after weights+screening)   ...   7436 (   0.0 sec)
nearest neighbour list constructed           ...    0.0 sec
Grid point re-assignment to atoms done       ...    0.0 sec
Grid point division into batches done        ...    0.0 sec
Reduced shell lists constructed in    0.0 sec

Total number of grid points                  ...     7436
Total number of batches                      ...      118
Average number of points per batch           ...       63
Average number of grid points per atom       ...     1239
Average number of shells per batch           ...    22.13 (76.30%)
Average number of basis functions per batch  ...    46.60 (76.39%)
Average number of large shells per batch     ...    19.20 (86.78%)
Average number of large basis fcns per batch ...    39.54 (84.85%)
Maximum spatial batch extension              ...  17.39, 25.12, 20.15 au
Average spatial batch extension              ...   4.56,  5.73,  4.98 au

Time for grid setup =    0.018 sec

------------------------------
INITIAL GUESS: MODEL POTENTIAL
------------------------------
Loading Hartree-Fock densities                     ... done
Calculating cut-offs                               ... done
Setting up the integral package                    ... done
Initializing the effective Hamiltonian             ... done
Starting the Coulomb interaction                   ... done (   0.0 sec)
Reading the grid                                   ... done
Mapping shells                                     ... done
Starting the XC term evaluation                    ... done (   0.0 sec)
  promolecular density results
     # of electrons  =     34.995653712
     EX              =    -43.400139883
     EC              =     -1.252066798
     EX+EC           =    -44.652206681
Transforming the Hamiltonian                       ... done (   0.0 sec)
Diagonalizing the Hamiltonian                      ... done (   0.0 sec)
Back transforming the eigenvectors                 ... done (   0.0 sec)
Now organizing SCF variables                       ... done
                      ------------------
                      INITIAL GUESS DONE (   0.1 sec)
                      ------------------
--------------------
COSX GRID GENERATION
--------------------

General Integration Accuracy     IntAcc      ...  3.340
Radial Grid Type                 RadialGrid  ... Gauss-Chebyshev
Angular Grid (max. acc.)         AngularGrid ... Lebedev-50
Angular grid pruning method      GridPruning ... 3 (G Style)
Weight generation scheme         WeightScheme... Becke
Basis function cutoff            BFCut       ...    1.0000e-11
Integration weight cutoff        WCut        ...    1.0000e-14
Grids for H and He will be reduced by one unit

# of grid points (after initial pruning)     ...   2826 (   0.0 sec)
# of grid points (after weights+screening)   ...   2768 (   0.0 sec)
nearest neighbour list constructed           ...    0.0 sec
Grid point re-assignment to atoms done       ...    0.0 sec
Grid point division into batches done        ...    0.0 sec
Reduced shell lists constructed in    0.0 sec

Total number of grid points                  ...     2768
Total number of batches                      ...       46
Average number of points per batch           ...       60
Average number of grid points per atom       ...      461
Average number of shells per batch           ...    23.43 (80.78%)
Average number of basis functions per batch  ...    49.85 (81.72%)
Average number of large shells per batch     ...    20.94 (89.37%)
Average number of large basis fcns per batch ...    43.74 (87.75%)
Maximum spatial batch extension              ...  16.16, 25.19, 25.19 au
Average spatial batch extension              ...   5.93,  7.13,  7.33 au

Overlap Fitting                  UseSFitting ... on
Constructing numerical overlap ... done (      0.0 sec)
Inverting numerical overlap    ... done (      0.0 sec)
Obtaining analytic overlap     ... done (      0.0 sec)
Final contraction and storage  ... done (      0.0 sec)


General Integration Accuracy     IntAcc      ...  3.670
Radial Grid Type                 RadialGrid  ... Gauss-Chebyshev
Angular Grid (max. acc.)         AngularGrid ... Lebedev-50
Angular grid pruning method      GridPruning ... 3 (G Style)
Weight generation scheme         WeightScheme... Becke
Basis function cutoff            BFCut       ...    1.0000e-11
Integration weight cutoff        WCut        ...    1.0000e-14
Grids for H and He will be reduced by one unit

# of grid points (after initial pruning)     ...   3566 (   0.0 sec)
# of grid points (after weights+screening)   ...   3488 (   0.0 sec)
nearest neighbour list constructed           ...    0.0 sec
Grid point re-assignment to atoms done       ...    0.0 sec
Grid point division into batches done        ...    0.0 sec
Reduced shell lists constructed in    0.0 sec

Total number of grid points                  ...     3488
Total number of batches                      ...       58
Average number of points per batch           ...       60
Average number of grid points per atom       ...      581
Average number of shells per batch           ...    23.42 (80.77%)
Average number of basis functions per batch  ...    49.73 (81.52%)
Average number of large shells per batch     ...    20.63 (88.06%)
Average number of large basis fcns per batch ...    43.10 (86.67%)
Maximum spatial batch extension              ...  17.48, 27.20, 27.25 au
Average spatial batch extension              ...   5.54,  6.73,  6.70 au

Overlap Fitting                  UseSFitting ... on
Constructing numerical overlap ... done (      0.0 sec)
Inverting numerical overlap    ... done (      0.0 sec)
Obtaining analytic overlap     ... done (      0.0 sec)
Final contraction and storage  ... done (      0.0 sec)


General Integration Accuracy     IntAcc      ...  4.010
Radial Grid Type                 RadialGrid  ... Gauss-Chebyshev
Angular Grid (max. acc.)         AngularGrid ... Lebedev-110
Angular grid pruning method      GridPruning ... 3 (G Style)
Weight generation scheme         WeightScheme... Becke
Basis function cutoff            BFCut       ...    1.0000e-11
Integration weight cutoff        WCut        ...    1.0000e-14
Grids for H and He will be reduced by one unit

# of grid points (after initial pruning)     ...   6574 (   0.0 sec)
# of grid points (after weights+screening)   ...   6417 (   0.0 sec)
nearest neighbour list constructed           ...    0.0 sec
Grid point re-assignment to atoms done       ...    0.0 sec
Grid point division into batches done        ...    0.0 sec
Reduced shell lists constructed in    0.0 sec

Total number of grid points                  ...     6417
Total number of batches                      ...      103
Average number of points per batch           ...       62
Average number of grid points per atom       ...     1070
Average number of shells per batch           ...    22.40 (77.25%)
Average number of basis functions per batch  ...    47.13 (77.27%)
Average number of large shells per batch     ...    19.45 (86.82%)
Average number of large basis fcns per batch ...    40.05 (84.97%)
Maximum spatial batch extension              ...  17.39, 24.28, 24.28 au
Average spatial batch extension              ...   4.66,  5.66,  5.14 au

Overlap Fitting                  UseSFitting ... on
Constructing numerical overlap ... done (      0.0 sec)
Inverting numerical overlap    ... done (      0.0 sec)
Obtaining analytic overlap     ... done (      0.0 sec)
Final contraction and storage  ... done (      0.0 sec)

Time for X-Grid setup             =    0.089 sec
--------------
SCF ITERATIONS
--------------
ITER       Energy         Delta-E        Max-DP      RMS-DP      [F,P]     Damp
               ***  Starting incremental Fock matrix formation  ***
  0   -598.5589343619   0.000000000000 0.23707301  0.00865975  0.3346132 0.7000
  1   -598.6576511881  -0.098716826184 0.18262395  0.00640827  0.1255518 0.7000
                               ***Turning on DIIS***
  2   -598.6949678497  -0.037316661577 0.21739295  0.00979982  0.0447989 0.0000
  3   -598.7538411215  -0.058873271805 0.14192119  0.00449023  0.0743647 0.0000
  4   -598.7674772469  -0.013636125413 0.02252125  0.00119506  0.0149657 0.0000
  5   -598.7686005287  -0.001123281775 0.00878466  0.00048549  0.0057843 0.0000
                      *** Initiating the SOSCF procedure ***
                           *** Shutting down DIIS ***
                      *** Re-Reading the Fockian *** 
                      *** Removing any level shift *** 
ITER      Energy       Delta-E        Grad      Rot      Max-DP    RMS-DP
  6   -598.76870569  -0.0001051583  0.000561  0.000561  0.001619  0.000126
               *** Restarting incremental Fock matrix formation ***
  7   -598.76872383  -0.0000181442  0.000417  0.001765  0.003289  0.000167
  8   -598.76872755  -0.0000037152  0.000310  0.000885  0.002944  0.000110
  9   -598.76872878  -0.0000012320  0.000290  0.000450  0.001335  0.000051
 10   -598.76872945  -0.0000006728  0.000154  0.000274  0.000443  0.000035
 11   -598.76872952  -0.0000000684  0.000088  0.000183  0.000312  0.000022
 12   -598.76872975  -0.0000002286  0.000042  0.000058  0.000285  0.000009
 13   -598.76872976  -0.0000000158  0.000030  0.000032  0.000161  0.000006
                  ***Gradient check signals convergence***
              ***Rediagonalizing the Fockian in SOSCF/NRSCF***

               *****************************************************
               *                     SUCCESS                       *
               *           SCF CONVERGED AFTER  14 CYCLES          *
               *****************************************************

Setting up the final grid:

General Integration Accuracy     IntAcc      ...  4.670
Radial Grid Type                 RadialGrid  ... Gauss-Chebyshev
Angular Grid (max. acc.)         AngularGrid ... Lebedev-302
Angular grid pruning method      GridPruning ... 3 (G Style)
Weight generation scheme         WeightScheme... Becke
Basis function cutoff            BFCut       ...    1.0000e-11
Integration weight cutoff        WCut        ...    1.0000e-14
Grids for H and He will be reduced by one unit

# of grid points (after initial pruning)     ...  29404 (   0.0 sec)
# of grid points (after weights+screening)   ...  28523 (   0.0 sec)
nearest neighbour list constructed           ...    0.0 sec
Grid point re-assignment to atoms done       ...    0.0 sec
Grid point division into batches done        ...    0.1 sec
Reduced shell lists constructed in    0.1 sec

Total number of grid points                  ...    28523
Total number of batches                      ...      448
Average number of points per batch           ...       63
Average number of grid points per atom       ...     4754
Average number of shells per batch           ...    20.38 (70.29%)
Average number of basis functions per batch  ...    42.81 (70.18%)
Average number of large shells per batch     ...    17.37 (85.24%)
Average number of large basis fcns per batch ...    35.60 (83.15%)
Maximum spatial batch extension              ...  14.42, 21.17, 19.97 au
Average spatial batch extension              ...   2.93,  3.43,  3.33 au

Final grid set up in    0.1 sec
Final integration                            ... done (   0.1 sec)
Change in XC energy                          ...    -0.001282311
Integrated number of electrons               ...    36.000045091
Previous integrated no of electrons          ...    35.997769496
Old exchange energy                            =    -11.011074978 Eh
New exchange energy                            =    -11.010707690 Eh
Exchange energy change after final integration =      0.000367288 Eh
Total energy after final integration           =   -598.769644789 Eh
Final COS-X integration done in                =     0.258 sec

----------------
TOTAL SCF ENERGY
----------------

Total Energy       :         -598.76964479 Eh          -16293.35037 eV

Components:
Nuclear Repulsion  :           98.21730610 Eh            2672.62877 eV
Electronic Energy  :         -696.98695089 Eh          -18965.97915 eV
One Electron Energy:        -1030.02459278 Eh          -28028.39411 eV
Two Electron Energy:          333.03764189 Eh            9062.41496 eV

Virial components:
Potential Energy   :        -1198.00257110 Eh          -32599.30728 eV
Kinetic Energy     :          599.23292631 Eh           16305.95690 eV
Virial Ratio       :            1.99922688


DFT components:
N(Alpha)           :       18.000022545672 electrons
N(Beta)            :       18.000022545672 electrons
N(Total)           :       36.000045091344 electrons
E(X)               :      -32.953594231772 Eh       
E(C)               :       -1.305104139080 Eh       
E(XC)              :      -34.258698370852 Eh       
DFET-embed. en.    :        0.000000000000 Eh       

---------------
SCF CONVERGENCE
---------------

  Last Energy change         ...   -1.4886e-09  Tolerance :   1.0000e-08
  Last MAX-Density change    ...    4.4409e-15  Tolerance :   1.0000e-07
  Last RMS-Density change    ...    1.2018e-16  Tolerance :   5.0000e-09
  Last Orbital Gradient      ...    1.8345e-06  Tolerance :   1.0000e-05
  Last Orbital Rotation      ...    4.2471e-06  Tolerance :   1.0000e-05

             **** THE GBW FILE WAS UPDATED (ts_guess_hess_backwards_orca.gbw) ****
             **** DENSITY FILE WAS UPDATED (ts_guess_hess_backwards_orca.scfp) ****
             **** ENERGY FILE WAS UPDATED (ts_guess_hess_backwards_orca.en.tmp) ****
             **** THE GBW FILE WAS UPDATED (ts_guess_hess_backwards_orca.gbw) ****
             **** DENSITY FILE WAS UPDATED (ts_guess_hess_backwards_orca.scfp) ****
----------------
ORBITAL ENERGIES
----------------

  NO   OCC          E(Eh)            E(eV) 
   0   2.0000    -101.529722     -2762.7642 
   1   2.0000     -24.333845      -662.1576 
   2   2.0000     -10.093181      -274.6494 
   3   2.0000      -9.409704      -256.0511 
   4   2.0000      -7.150672      -194.5797 
   5   2.0000      -7.137688      -194.2264 
   6   2.0000      -7.137497      -194.2212 
   7   2.0000      -0.912484       -24.8299 
   8   2.0000      -0.711255       -19.3542 
   9   2.0000      -0.425318       -11.5735 
  10   2.0000      -0.332195        -9.0395 
  11   2.0000      -0.330213        -8.9856 
  12   2.0000      -0.291259        -7.9256 
  13   2.0000      -0.029566        -0.8045 
  14   2.0000      -0.028491        -0.7753 
  15   2.0000      -0.006233        -0.1696 
  16   2.0000       0.008661         0.2357 
  17   2.0000       0.017119         0.4658 
  18   0.0000       0.240678         6.5492 
  19   0.0000       0.244478         6.6526 
  20   0.0000       0.246556         6.7091 
  21   0.0000       0.377416        10.2700 
  22   0.0000       0.514554        14.0017 
  23   0.0000       0.688788        18.7429 
  24   0.0000       0.695593        18.9280 
  25   0.0000       0.704117        19.1600 
  26   0.0000       0.705508        19.1978 
  27   0.0000       0.707817        19.2607 
  28   0.0000       0.770158        20.9571 
  29   0.0000       0.867798        23.6140 
  30   0.0000       0.867860        23.6157 
  31   0.0000       1.002632        27.2830 
  32   0.0000       1.003948        27.3188 
  33   0.0000       1.152858        31.3709 
  34   0.0000       1.164600        31.6904 
  35   0.0000       1.255924        34.1754 
  36   0.0000       1.308456        35.6049 
  37   0.0000       1.443525        39.2803 
  38   0.0000       1.456219        39.6257 
  39   0.0000       1.499226        40.7960 
  40   0.0000       1.607733        43.7487 
  41   0.0000       1.609956        43.8091 
  42   0.0000       1.725723        46.9593 
  43   0.0000       1.753474        47.7144 
  44   0.0000       1.779621        48.4259 
  45   0.0000       1.816379        49.4262 
  46   0.0000       1.873167        50.9715 
  47   0.0000       2.077803        56.5399 
  48   0.0000       2.085751        56.7562 
  49   0.0000       2.124708        57.8162 
  50   0.0000       2.133914        58.0668 
  51   0.0000       2.170591        59.0648 
  52   0.0000       2.328037        63.3491 
  53   0.0000       2.750793        74.8529 
  54   0.0000       2.827208        76.9322 
  55   0.0000       3.106554        84.5336 
  56   0.0000       3.509620        95.5016 
  57   0.0000       3.510198        95.5173 
  58   0.0000       3.515660        95.6660 
  59   0.0000       3.517172        95.7071 
  60   0.0000       3.520960        95.8102 

                    ********************************
                    * MULLIKEN POPULATION ANALYSIS *
                    ********************************

-----------------------
MULLIKEN ATOMIC CHARGES
-----------------------
   0 F :   -0.676883
   1 Cl:    0.328416
   2 C :   -0.760167
   3 H :    0.032402
   4 H :    0.030129
   5 H :    0.046104
Sum of atomic charges:   -1.0000000

--------------------------------
MULLIKEN REDUCED ORBITAL CHARGES
--------------------------------
  0 F s       :     3.984273  s :     3.984273
      pz      :     1.947800  p :     5.692448
      px      :     1.819712
      py      :     1.924936
      dz2     :     0.000019  d :     0.000162
      dxz     :     0.000042
      dyz     :     0.000002
      dx2y2   :     0.000033
      dxy     :     0.000065
  1 Cls       :     5.691638  s :     5.691638
      pz      :     3.782433  p :    10.802012
      px      :     3.230430
      py      :     3.789149
      dz2     :     0.007682  d :     0.177934
      dxz     :     0.070029
      dyz     :     0.000681
      dx2y2   :     0.022683
      dxy     :     0.076859
  2 C s       :     3.385355  s :     3.385355
      pz      :     1.174450  p :     3.296978
      px      :     0.896699
      py      :     1.225829
      dz2     :     0.004960  d :     0.077835
      dxz     :     0.029599
      dyz     :     0.001096
      dx2y2   :     0.013098
      dxy     :     0.029081
  3 H s       :     0.948910  s :     0.948910
      pz      :     0.004665  p :     0.018689
      px      :     0.009776
      py      :     0.004247
  4 H s       :     0.951170  s :     0.951170
      pz      :     0.005241  p :     0.018702
      px      :     0.009176
      py      :     0.004284
  5 H s       :     0.935072  s :     0.935072
      pz      :     0.003116  p :     0.018824
      px      :     0.011264
      py      :     0.004444


                     *******************************
                     * LOEWDIN POPULATION ANALYSIS *
                     *******************************

----------------------
LOEWDIN ATOMIC CHARGES
----------------------
   0 F :   -0.704495
   1 Cl:    0.490733
   2 C :   -0.768272
   3 H :   -0.009921
   4 H :   -0.012140
   5 H :    0.004095

-------------------------------
LOEWDIN REDUCED ORBITAL CHARGES
-------------------------------
  0 F s       :     3.976908  s :     3.976908
      pz      :     1.958895  p :     5.727299
      px      :     1.829384
      py      :     1.939019
      dz2     :     0.000023  d :     0.000289
      dxz     :     0.000091
      dyz     :     0.000006
      dx2y2   :     0.000028
      dxy     :     0.000141
  1 Cls       :     5.415960  s :     5.415960
      pz      :     3.700866  p :    10.832227
      px      :     3.422041
      py      :     3.709321
      dz2     :     0.014874  d :     0.261079
      dxz     :     0.095489
      dyz     :     0.000886
      dx2y2   :     0.044140
      dxy     :     0.105691
  2 C s       :     3.000869  s :     3.000869
      pz      :     1.173766  p :     3.561986
      px      :     1.173850
      py      :     1.214369
      dz2     :     0.012759  d :     0.205417
      dxz     :     0.078788
      dyz     :     0.002390
      dx2y2   :     0.034774
      dxy     :     0.076706
  3 H s       :     0.960606  s :     0.960606
      pz      :     0.011499  p :     0.049315
      px      :     0.025437
      py      :     0.012379
  4 H s       :     0.962439  s :     0.962439
      pz      :     0.013488  p :     0.049702
      px      :     0.023608
      py      :     0.012606
  5 H s       :     0.947077  s :     0.947077
      pz      :     0.009157  p :     0.048828
      px      :     0.029992
      py      :     0.009679


                      *****************************
                      * MAYER POPULATION ANALYSIS *
                      *****************************

  NA   - Mulliken gross atomic population
  ZA   - Total nuclear charge
  QA   - Mulliken gross atomic charge
  VA   - Mayer's total valence
  BVA  - Mayer's bonded valence
  FA   - Mayer's free valence

  ATOM       NA         ZA         QA         VA         BVA        FA
  0 F      9.6769     9.0000    -0.6769     0.5908     0.5908     0.0000
  1 Cl    16.6716    17.0000     0.3284     1.7218     1.7218     0.0000
  2 C      6.7602     6.0000    -0.7602     3.8483     3.8483     0.0000
  3 H      0.9676     1.0000     0.0324     0.9910     0.9910    -0.0000
  4 H      0.9699     1.0000     0.0301     0.9897     0.9897    -0.0000
  5 H      0.9539     1.0000     0.0461     0.9938     0.9938     0.0000

  Mayer bond orders larger than 0.100000
B(  0-F ,  2-C ) :   0.1506 B(  0-F ,  3-H ) :   0.1338 B(  0-F ,  4-H ) :   0.1256 
B(  0-F ,  5-H ) :   0.1884 B(  1-Cl,  2-C ) :   1.3769 B(  1-Cl,  3-H ) :   0.1157 
B(  1-Cl,  4-H ) :   0.1133 B(  1-Cl,  5-H ) :   0.1235 B(  2-C ,  3-H ) :   0.7908 
B(  2-C ,  4-H ) :   0.8003 B(  2-C ,  5-H ) :   0.7297 


------------------
HIRSHFELD ANALYSIS
------------------

Total integrated alpha density =     17.998884748
Total integrated beta density  =     17.998884748

  ATOM     CHARGE      SPIN    
   0 F   -0.678039    0.000000
   1 Cl   0.002923    0.000000
   2 C   -0.191838    0.000000
   3 H   -0.045435    0.000000
   4 H   -0.045712    0.000000
   5 H   -0.039668    0.000000

  TOTAL  -0.997769    0.000000

-------
TIMINGS
-------

Total SCF time: 0 days 0 hours 0 min 3 sec 

Total time                  ....       3.848 sec
Sum of individual times     ....       3.795 sec  ( 98.6%)

Fock matrix formation       ....       3.472 sec  ( 90.2%)
  Split-RI-J                ....       0.916 sec  ( 26.4% of F)
  Chain of spheres X        ....       2.237 sec  ( 64.4% of F)
  XC integration            ....       0.311 sec  (  9.0% of F)
    Basis function eval.    ....       0.105 sec  ( 33.8% of XC)
    Density eval.           ....       0.063 sec  ( 20.2% of XC)
    XC-Functional eval.     ....       0.053 sec  ( 16.9% of XC)
    XC-Potential eval.      ....       0.075 sec  ( 24.3% of XC)
Diagonalization             ....       0.002 sec  (  0.1%)
Density matrix formation    ....       0.000 sec  (  0.0%)
Population analysis         ....       0.011 sec  (  0.3%)
Initial guess               ....       0.074 sec  (  1.9%)
Orbital Transformation      ....       0.000 sec  (  0.0%)
Orbital Orthonormalization  ....       0.000 sec  (  0.0%)
DIIS solution               ....       0.001 sec  (  0.0%)
SOSCF solution              ....       0.002 sec  (  0.1%)
Grid generation             ....       0.233 sec  (  6.1%)


-------------------------------------------------------------------------------
                          DFT DISPERSION CORRECTION                            
                                                                               
                              DFTD3 V3.1  Rev 1                                
                          USING Becke-Johnson damping                          
-------------------------------------------------------------------------------
The PBE0 functional is recognized
Active option DFTDOPT                   ...         4   

molecular C6(AA) [au] = 652.993769 


            DFT-D V3
 parameters
 s6 scaling factor         :     1.0000 
 a1 scaling factor         :     0.4145 
 s8 scaling factor         :     1.2177 
 a2 scaling factor         :     4.8593 
 ad hoc parameters k1-k3   :    16.0000     1.3333    -4.0000 

 Edisp/kcal,au: -2.192418118210  -0.003493840292 
 E6   /kcal   :  -1.399076192 
 E8   /kcal   :  -0.793341926 
 % E8         :  36.185703796 

-------------------------   ----------------
Dispersion correction           -0.003493840
-------------------------   ----------------


-------------------------   --------------------
FINAL SINGLE POINT ENERGY      -598.773138628937
-------------------------   --------------------

------------------------------------------------------------------------------
                         ORCA SCF GRADIENT CALCULATION
------------------------------------------------------------------------------

Gradient of the Kohn-Sham DFT energy:
Kohn-Sham wavefunction type      ... RKS
Hartree-Fock exchange scaling    ...    0.250
Number of operators              ...    1
Number of atoms                  ...    6
Basis set dimensions             ...   61
Integral neglect threshold       ... 2.5e-11
Integral primitive cutoff        ... 2.5e-12

Nuclear repulsion gradient       ... done
One Electron Gradient            ... done
Pre-screening matrix             ... done
RI-J gradient                    ... done
COSX-gradient                    ... done
Exchange-correlation gradient    ... done
Dispersion correction            ... done

------------------
CARTESIAN GRADIENT
------------------

   1   F   :   -0.019405396   -0.002698891    0.000259341
   2   Cl  :   -1.279986946   -0.081454817    0.058247270
   3   C   :    1.482036733    0.094258597   -0.067685240
   4   H   :   -0.062568283   -0.016084804   -0.017311953
   5   H   :   -0.062075181   -0.015041483    0.023819865
   6   H   :   -0.053088763    0.020830233    0.001992750

Difference to translation invariance:
           :    0.0049121650   -0.0001911657   -0.0006779678

Norm of the cartesian gradient     ...    1.9674992878
RMS gradient                       ...    0.4637440295
MAX gradient                       ...    1.4820367331

-------
TIMINGS
-------

Total SCF gradient time            ...        0.797 sec

One electron gradient       ....       0.005 sec  (  0.7%)
Prescreening matrices       ....       0.011 sec  (  1.4%)
RI-J Coulomb gradient       ....       0.090 sec  ( 11.3%)
COSX gradient               ....       0.264 sec  ( 33.1%)
XC gradient                 ....       0.298 sec  ( 37.4%)
------------------------------------------------------------------------------
                         ORCA GEOMETRY RELAXATION STEP
------------------------------------------------------------------------------

Reading the OPT-File                    .... done
Getting information on internals        .... done
Copying old internal coords+grads       .... done
Making the new internal coordinates     .... (new redundants).... done
Validating the new internal coordinates .... (new redundants).... done
Calculating the B-matrix                .... done
Calculating the G,G- and P matrices     .... done
Transforming gradient to internals      .... done
Projecting the internal gradient        .... done
Number of atoms                         ....   6
Number of internal coordinates          ....  51
Current Energy                          ....  -598.773138629 Eh
Current gradient norm                   ....     1.967499288 Eh/bohr
Maximum allowed component of the step   ....  0.300
Current trust radius                    ....  0.300
Evaluating the initial hessian          ....  (Almloef) done
Projecting the Hessian                  .... done
Forming the augmented Hessian           .... done
Diagonalizing the augmented Hessian     .... done
Last element of RFO vector              ....  0.922810056
Lowest eigenvalues of augmented Hessian:
 -0.489367641  0.009573850  0.010913759  0.024043691  0.025381784
Length of the computed step             ....  0.417480539
Warning: the length of the step is outside the trust region - taking restricted step instead
The input lambda is                     ....    -0.489368
   iter:   1  x=   -0.861686  g=    0.226392 f(x)=     0.084290
   iter:   2  x=   -1.235703  g=    0.088396 f(x)=     0.033062
   iter:   3  x=   -1.374022  g=    0.053956 f(x)=     0.007463
   iter:   4  x=   -1.384727  g=    0.046977 f(x)=     0.000503
   iter:   5  x=   -1.384782  g=    0.046505 f(x)=     0.000003
   iter:   6  x=   -1.384782  g=    0.046502 f(x)=     0.000000
   iter:   7  x=   -1.384782  g=    0.046502 f(x)=    -0.000000
The output lambda is                    ....    -1.384782 (7 iterations)
The final length of the internal step   ....  0.300000000
Converting the step to cartesian space:
 Initial RMS(Int)=    0.0420084025
Transforming coordinates:
 Iter   0:  RMS(Cart)=    0.0362514374 RMS(Int)=    0.0302506213
 Iter   1:  RMS(Cart)=    0.0191195538 RMS(Int)=    0.0124250729
 Iter   2:  RMS(Cart)=    0.0000074979 RMS(Int)=    0.0000093631
 Iter   3:  RMS(Cart)=    0.0000008180 RMS(Int)=    0.0000008264
 Iter   4:  RMS(Cart)=    0.0000000783 RMS(Int)=    0.0000000803
done
Storing new coordinates                 .... done

                                .--------------------.
          ----------------------|Geometry convergence|-------------------------
          Item                value                   Tolerance       Converged
          ---------------------------------------------------------------------
          RMS gradient        0.1806760298            0.0001000000      NO
          MAX gradient        1.2847168792            0.0003000000      NO
          RMS step            0.0420084025            0.0020000000      NO
          MAX step            0.2887315723            0.0040000000      NO
          ........................................................
          Max(Bonds)      0.1528      Max(Angles)    0.83
          Max(Dihed)        0.43      Max(Improp)    0.00
          ---------------------------------------------------------------------

The optimization has not yet converged - more geometry cycles are needed


    ---------------------------------------------------------------------------
                         Redundant Internal Coordinates
                            (Angstroem and degrees)

        Definition                    Value    dE/dq     Step     New-Value
    ----------------------------------------------------------------------------
     1. B(C   2,Cl  1)                1.1771 -1.284717  0.1528    1.3299   
     2. B(H   3,C   2)                1.5125  0.054217 -0.0195    1.4930   
     3. B(H   4,C   2)                1.4982  0.054586 -0.0196    1.4785   
     4. B(H   4,H   3)                1.7140  0.011515 -0.0044    1.7095   
     5. B(H   5,C   2)                1.5925  0.057083 -0.0207    1.5718   
     6. B(H   5,H   4)                1.7089  0.009286 -0.0037    1.7052   
     7. B(H   5,H   3)                1.7048  0.009095 -0.0037    1.7012   
     8. B(H   5,F   0)                2.0410  0.019240 -0.0073    2.0337   
     9. A(Cl  1,C   2,H   3)          139.91  0.013413   -0.51    139.40   
    10. A(Cl  1,C   2,H   5)          140.48  0.013377   -0.51    139.97   
    11. A(H   3,C   2,H   4)           69.40 -0.021561    0.83     70.23   
    12. A(H   4,C   2,H   5)           67.06 -0.021579    0.83     67.88   
    13. A(H   3,C   2,H   5)           66.55 -0.021237    0.81     67.36   
    14. A(Cl  1,C   2,H   4)          139.56  0.013509   -0.52    139.04   
    15. A(C   2,H   3,H   4)           54.91  0.010847   -0.42     54.49   
    16. A(H   4,H   3,H   5)           59.98 -0.000367    0.01     59.99   
    17. A(C   2,H   3,H   5)           58.98  0.011525   -0.45     58.53   
    18. A(C   2,H   4,H   5)           59.11  0.011631   -0.45     58.66   
    19. A(H   3,H   4,H   5)           59.74 -0.000453    0.02     59.76   
    20. A(C   2,H   4,H   3)           55.69  0.010714   -0.41     55.28   
    21. A(C   2,H   5,H   3)           54.48  0.009711   -0.37     54.11   
    22. A(F   0,H   5,H   3)           72.23  0.001054   -0.05     72.19   
    23. A(C   2,H   5,H   4)           53.83  0.009947   -0.38     53.46   
    24. A(F   0,H   5,H   4)           73.44  0.000902   -0.04     73.40   
    25. A(H   3,H   5,H   4)           60.28  0.000819   -0.03     60.25   
    26. A(F   0,H   5,C   2)          117.43  0.013361   -0.51    116.91   
    27. D(H   4,H   3,C   2,H   5)    -73.09  0.011332   -0.43    -73.52   
    28. D(H   5,H   3,C   2,H   4)     73.09 -0.011332    0.43     73.52   
    29. D(H   4,H   3,C   2,Cl  1)    144.70  0.006051   -0.23    144.46   
    30. D(H   5,H   3,C   2,Cl  1)   -142.22 -0.005281    0.20   -142.01   
    31. D(H   3,H   4,C   2,Cl  1)   -144.99 -0.006045    0.23   -144.76   
    32. D(H   5,H   4,C   2,Cl  1)    142.63  0.005055   -0.19    142.43   
    33. D(C   2,H   4,H   3,H   5)    -71.25 -0.010892    0.42    -70.82   
    34. D(H   3,H   4,C   2,H   5)     72.39 -0.011100    0.43     72.81   
    35. D(H   5,H   4,C   2,H   3)    -72.39  0.011100   -0.43    -72.81   
    36. D(H   5,H   4,H   3,C   2)     71.25  0.010892   -0.42     70.82   
    37. D(H   4,H   5,C   2,Cl  1)   -141.78 -0.004925    0.19   -141.59   
    38. D(F   0,H   5,C   2,H   3)     37.54 -0.005105    0.20     37.73   
    39. D(H   3,H   5,H   4,C   2)     65.71  0.008974   -0.34     65.37   
    40. D(H   4,H   5,C   2,H   3)     76.54 -0.010087    0.39     76.93   
    41. D(C   2,H   5,H   4,H   3)    -65.71 -0.008974    0.34    -65.37   
    42. D(F   0,H   5,C   2,H   4)    -39.00  0.004983   -0.19    -39.19   
    43. D(F   0,H   5,C   2,Cl  1)    179.22  0.000058   -0.00    179.22   
    44. D(H   4,H   5,H   3,C   2)    -64.70 -0.009285    0.35    -64.35   
    45. D(C   2,H   5,H   3,H   4)     64.70  0.009285   -0.35     64.35   
    46. D(F   0,H   5,H   3,H   4)    -80.70 -0.000315    0.02    -80.68   
    47. D(F   0,H   5,H   4,C   2)    144.36  0.009577   -0.37    143.99   
    48. D(F   0,H   5,H   4,H   3)     78.65  0.000603   -0.03     78.62   
    49. D(F   0,H   5,H   3,C   2)   -145.40 -0.009601    0.37   -145.03   
    50. D(H   3,H   5,C   2,H   4)    -76.54  0.010087   -0.39    -76.93   
    51. D(H   3,H   5,C   2,Cl  1)    141.68  0.005162   -0.20    141.49   
    ----------------------------------------------------------------------------

         *************************************************************
         *                GEOMETRY OPTIMIZATION CYCLE   2            *
         *************************************************************
---------------------------------
CARTESIAN COORDINATES (ANGSTROEM)
---------------------------------
  F     -2.946286   -0.004446    0.105591
  Cl     1.459932    0.063080   -0.062259
  C      0.134098   -0.021890   -0.002527
  H     -1.003433   -0.572678   -0.797440
  H     -0.912138   -0.532448    0.909098
  H     -1.131487    0.909965    0.026593

----------------------------
CARTESIAN COORDINATES (A.U.)
----------------------------
  NO LB      ZA    FRAG     MASS         X           Y           Z
   0 F     9.0000    0    18.998   -5.567674   -0.008401    0.199539
   1 Cl   17.0000    0    35.453    2.758872    0.119203   -0.117652
   2 C     6.0000    0    12.011    0.253408   -0.041366   -0.004775
   3 H     1.0000    0     1.008   -1.896213   -1.082205   -1.506943
   4 H     1.0000    0     1.008   -1.723692   -1.006181    1.717946
   5 H     1.0000    0     1.008   -2.138200    1.719584    0.050254

--------------------------------
INTERNAL COORDINATES (ANGSTROEM)
--------------------------------
 F      0   0   0     0.000000000000     0.00000000     0.00000000
 Cl     1   0   0     4.409930835603     0.00000000     0.00000000
 C      2   1   0     1.329896130152     2.81410474     0.00000000
 H      3   2   1     1.493061081235   139.39440715   111.42294778
 H      3   2   4     1.478627566479   139.03973351   123.43953526
 H      3   2   5     1.571911371038   139.96231418   118.58370590

---------------------------
INTERNAL COORDINATES (A.U.)
---------------------------
 F      0   0   0     0.000000000000     0.00000000     0.00000000
 Cl     1   0   0     8.333561548825     0.00000000     0.00000000
 C      2   1   0     2.513139472549     2.81410474     0.00000000
 H      3   2   1     2.821476544750   139.39440715   111.42294778
 H      3   2   4     2.794201154712   139.03973351   123.43953526
 H      3   2   5     2.970481998058   139.96231418   118.58370590

 One Electron integrals                  ... done
 Pre-screening matrix                    ... done

Diagonalization of the overlap matrix:
Smallest eigenvalue                        ... 5.081e-03
Time for diagonalization                   ...    0.001 sec
Threshold for overlap eigenvalues          ... 1.000e-08
Number of eigenvalues below threshold      ... 0
Time for construction of square roots      ...    0.000 sec
Total time needed                          ...    0.001 sec

-------------------
DFT GRID GENERATION
-------------------

General Integration Accuracy     IntAcc      ...  4.340
Radial Grid Type                 RadialGrid  ... Gauss-Chebyshev
Angular Grid (max. acc.)         AngularGrid ... Lebedev-110
Angular grid pruning method      GridPruning ... 3 (G Style)
Weight generation scheme         WeightScheme... Becke
Basis function cutoff            BFCut       ...    1.0000e-11
Integration weight cutoff        WCut        ...    1.0000e-14
Grids for H and He will be reduced by one unit

# of grid points (after initial pruning)     ...   7622 (   0.0 sec)
# of grid points (after weights+screening)   ...   7438 (   0.0 sec)
nearest neighbour list constructed           ...    0.0 sec
Grid point re-assignment to atoms done       ...    0.0 sec
Grid point division into batches done        ...    0.0 sec
Reduced shell lists constructed in    0.0 sec

Total number of grid points                  ...     7438
Total number of batches                      ...      118
Average number of points per batch           ...       63
Average number of grid points per atom       ...     1240
Average number of shells per batch           ...    22.06 (76.06%)
Average number of basis functions per batch  ...    46.41 (76.08%)
Average number of large shells per batch     ...    19.15 (86.82%)
Average number of large basis fcns per batch ...    39.25 (84.57%)
Maximum spatial batch extension              ...  17.45, 25.14, 20.17 au
Average spatial batch extension              ...   4.51,  5.67,  4.98 au

Time for grid setup =    0.019 sec

--------------------
COSX GRID GENERATION
--------------------

General Integration Accuracy     IntAcc      ...  3.340
Radial Grid Type                 RadialGrid  ... Gauss-Chebyshev
Angular Grid (max. acc.)         AngularGrid ... Lebedev-50
Angular grid pruning method      GridPruning ... 3 (G Style)
Weight generation scheme         WeightScheme... Becke
Basis function cutoff            BFCut       ...    1.0000e-11
Integration weight cutoff        WCut        ...    1.0000e-14
Grids for H and He will be reduced by one unit

# of grid points (after initial pruning)     ...   2826 (   0.0 sec)
# of grid points (after weights+screening)   ...   2768 (   0.0 sec)
nearest neighbour list constructed           ...    0.0 sec
Grid point re-assignment to atoms done       ...    0.0 sec
Grid point division into batches done        ...    0.0 sec
Reduced shell lists constructed in    0.0 sec

Total number of grid points                  ...     2768
Total number of batches                      ...       47
Average number of points per batch           ...       58
Average number of grid points per atom       ...      461
Average number of shells per batch           ...    23.44 (80.82%)
Average number of basis functions per batch  ...    49.85 (81.73%)
Average number of large shells per batch     ...    20.88 (89.07%)
Average number of large basis fcns per batch ...    43.46 (87.17%)
Maximum spatial batch extension              ...  15.86, 25.19, 25.19 au
Average spatial batch extension              ...   5.93,  6.99,  7.25 au

Overlap Fitting                  UseSFitting ... on
Constructing numerical overlap ... done (      0.0 sec)
Inverting numerical overlap    ... done (      0.0 sec)
Obtaining analytic overlap     ... done (      0.0 sec)
Final contraction and storage  ... done (      0.0 sec)


General Integration Accuracy     IntAcc      ...  3.670
Radial Grid Type                 RadialGrid  ... Gauss-Chebyshev
Angular Grid (max. acc.)         AngularGrid ... Lebedev-50
Angular grid pruning method      GridPruning ... 3 (G Style)
Weight generation scheme         WeightScheme... Becke
Basis function cutoff            BFCut       ...    1.0000e-11
Integration weight cutoff        WCut        ...    1.0000e-14
Grids for H and He will be reduced by one unit

# of grid points (after initial pruning)     ...   3566 (   0.0 sec)
# of grid points (after weights+screening)   ...   3492 (   0.0 sec)
nearest neighbour list constructed           ...    0.0 sec
Grid point re-assignment to atoms done       ...    0.0 sec
Grid point division into batches done        ...    0.0 sec
Reduced shell lists constructed in    0.0 sec

Total number of grid points                  ...     3492
Total number of batches                      ...       58
Average number of points per batch           ...       60
Average number of grid points per atom       ...      582
Average number of shells per batch           ...    23.32 (80.42%)
Average number of basis functions per batch  ...    49.63 (81.36%)
Average number of large shells per batch     ...    20.29 (86.99%)
Average number of large basis fcns per batch ...    42.05 (84.73%)
Maximum spatial batch extension              ...  17.48, 27.19, 27.23 au
Average spatial batch extension              ...   5.54,  6.73,  6.70 au

Overlap Fitting                  UseSFitting ... on
Constructing numerical overlap ... done (      0.0 sec)
Inverting numerical overlap    ... done (      0.0 sec)
Obtaining analytic overlap     ... done (      0.0 sec)
Final contraction and storage  ... done (      0.0 sec)


General Integration Accuracy     IntAcc      ...  4.010
Radial Grid Type                 RadialGrid  ... Gauss-Chebyshev
Angular Grid (max. acc.)         AngularGrid ... Lebedev-110
Angular grid pruning method      GridPruning ... 3 (G Style)
Weight generation scheme         WeightScheme... Becke
Basis function cutoff            BFCut       ...    1.0000e-11
Integration weight cutoff        WCut        ...    1.0000e-14
Grids for H and He will be reduced by one unit

# of grid points (after initial pruning)     ...   6574 (   0.0 sec)
# of grid points (after weights+screening)   ...   6419 (   0.0 sec)
nearest neighbour list constructed           ...    0.0 sec
Grid point re-assignment to atoms done       ...    0.0 sec
Grid point division into batches done        ...    0.0 sec
Reduced shell lists constructed in    0.0 sec

Total number of grid points                  ...     6419
Total number of batches                      ...      104
Average number of points per batch           ...       61
Average number of grid points per atom       ...     1070
Average number of shells per batch           ...    22.31 (76.95%)
Average number of basis functions per batch  ...    47.02 (77.08%)
Average number of large shells per batch     ...    19.35 (86.73%)
Average number of large basis fcns per batch ...    39.83 (84.71%)
Maximum spatial batch extension              ...  16.79, 24.28, 21.12 au
Average spatial batch extension              ...   4.62,  5.82,  5.09 au

Overlap Fitting                  UseSFitting ... on
Constructing numerical overlap ... done (      0.0 sec)
Inverting numerical overlap    ... done (      0.0 sec)
Obtaining analytic overlap     ... done (      0.0 sec)
Final contraction and storage  ... done (      0.0 sec)

Time for X-Grid setup             =    0.091 sec
--------------
SCF ITERATIONS
--------------
ITER       Energy         Delta-E        Max-DP      RMS-DP      [F,P]     Damp
               ***  Starting incremental Fock matrix formation  ***
  0   -599.0103931823   0.000000000000 0.02488090  0.00136131  0.0748141 0.7000
  1   -599.0177399021  -0.007346719857 0.01987861  0.00110307  0.0497194 0.7000
                               ***Turning on DIIS***
  2   -599.0220911895  -0.004351287340 0.04851453  0.00267619  0.0310708 0.0000
  3   -599.0320633749  -0.009972185425 0.01815280  0.00074010  0.0115228 0.0000
  4   -599.0322834519  -0.000220077013 0.00551286  0.00025233  0.0084548 0.0000
                      *** Initiating the SOSCF procedure ***
                           *** Shutting down DIIS ***
                      *** Re-Reading the Fockian *** 
                      *** Removing any level shift *** 
ITER      Energy       Delta-E        Grad      Rot      Max-DP    RMS-DP
  5   -599.03245256  -0.0001691058  0.000597  0.000597  0.001448  0.000080
               *** Restarting incremental Fock matrix formation ***
  6   -599.03246522  -0.0000126587  0.000566  0.001630  0.004829  0.000180
  7   -599.03245325   0.0000119629  0.001188  0.001082  0.002728  0.000124
  8   -599.03246824  -0.0000149833  0.000056  0.000149  0.000199  0.000013
  9   -599.03246814   0.0000000964  0.000090  0.000095  0.000167  0.000009
 10   -599.03246824  -0.0000001036  0.000004  0.000006  0.000009  0.000001
 11   -599.03246825  -0.0000000012  0.000003  0.000002  0.000005  0.000000
                  ***Gradient check signals convergence***
              ***Rediagonalizing the Fockian in SOSCF/NRSCF***

               *****************************************************
               *                     SUCCESS                       *
               *           SCF CONVERGED AFTER  12 CYCLES          *
               *****************************************************

Setting up the final grid:

General Integration Accuracy     IntAcc      ...  4.670
Radial Grid Type                 RadialGrid  ... Gauss-Chebyshev
Angular Grid (max. acc.)         AngularGrid ... Lebedev-302
Angular grid pruning method      GridPruning ... 3 (G Style)
Weight generation scheme         WeightScheme... Becke
Basis function cutoff            BFCut       ...    1.0000e-11
Integration weight cutoff        WCut        ...    1.0000e-14
Grids for H and He will be reduced by one unit

# of grid points (after initial pruning)     ...  29404 (   0.0 sec)
# of grid points (after weights+screening)   ...  28546 (   0.0 sec)
nearest neighbour list constructed           ...    0.0 sec
Grid point re-assignment to atoms done       ...    0.0 sec
Grid point division into batches done        ...    0.1 sec
Reduced shell lists constructed in    0.1 sec

Total number of grid points                  ...    28546
Total number of batches                      ...      449
Average number of points per batch           ...       63
Average number of grid points per atom       ...     4758
Average number of shells per batch           ...    20.31 (70.02%)
Average number of basis functions per batch  ...    42.65 (69.92%)
Average number of large shells per batch     ...    17.10 (84.19%)
Average number of large basis fcns per batch ...    34.88 (81.77%)
Maximum spatial batch extension              ...  14.71, 21.17, 20.12 au
Average spatial batch extension              ...   2.94,  3.44,  3.33 au

Final grid set up in    0.1 sec
Final integration                            ... done (   0.1 sec)
Change in XC energy                          ...    -0.001148759
Integrated number of electrons               ...    36.000059516
Previous integrated no of electrons          ...    35.998206823
Old exchange energy                            =    -10.977249196 Eh
New exchange energy                            =    -10.976872301 Eh
Exchange energy change after final integration =      0.000376895 Eh
Total energy after final integration           =   -599.033240105 Eh
Final COS-X integration done in                =     0.253 sec
Total Energy       :         -599.03324010 Eh          -16300.52317 eV
  Last Energy change         ...    4.0175e-09  Tolerance :   1.0000e-08
  Last MAX-Density change    ...    3.1086e-15  Tolerance :   1.0000e-07
             **** THE GBW FILE WAS UPDATED (ts_guess_hess_backwards_orca.gbw) ****
             **** DENSITY FILE WAS UPDATED (ts_guess_hess_backwards_orca.scfp) ****
             **** ENERGY FILE WAS UPDATED (ts_guess_hess_backwards_orca.en.tmp) ****
             **** THE GBW FILE WAS UPDATED (ts_guess_hess_backwards_orca.gbw) ****
             **** DENSITY FILE WAS UPDATED (ts_guess_hess_backwards_orca.scfp) ****
Total SCF time: 0 days 0 hours 0 min 3 sec 


-------------------------------------------------------------------------------
                          DFT DISPERSION CORRECTION                            
                                                                               
                              DFTD3 V3.1  Rev 1                                
                          USING Becke-Johnson damping                          
-------------------------------------------------------------------------------
-------------------------   ----------------
Dispersion correction           -0.003380312
-------------------------   ----------------


-------------------------   --------------------
FINAL SINGLE POINT ENERGY      -599.036620416839
-------------------------   --------------------

------------------------------------------------------------------------------
                         ORCA SCF GRADIENT CALCULATION
------------------------------------------------------------------------------

Gradient of the Kohn-Sham DFT energy:
Kohn-Sham wavefunction type      ... RKS
Hartree-Fock exchange scaling    ...    0.250
Number of operators              ...    1
Number of atoms                  ...    6
Basis set dimensions             ...   61
Integral neglect threshold       ... 2.5e-11
Integral primitive cutoff        ... 2.5e-12

Nuclear repulsion gradient       ... done
One Electron Gradient            ... done
Pre-screening matrix             ... done
RI-J gradient                    ... done
COSX-gradient                    ... done
Exchange-correlation gradient    ... done
Dispersion correction            ... done

------------------
CARTESIAN GRADIENT
------------------

   1   F   :   -0.021127051   -0.002887588    0.000355506
   2   Cl  :   -0.555453500   -0.034366573    0.025400989
   3   C   :    0.773805969    0.047797969   -0.035361660
   4   H   :   -0.067647125   -0.018413778   -0.020430587
   5   H   :   -0.067028052   -0.017194363    0.027426598
   6   H   :   -0.057569002    0.024834729    0.002076777

Difference to translation invariance:
           :    0.0049812387   -0.0002296032   -0.0005323783

Norm of the cartesian gradient     ...    0.9632906880
RMS gradient                       ...    0.2270497926
MAX gradient                       ...    0.7738059687

-------
TIMINGS
-------

Total SCF gradient time            ...        0.759 sec

One electron gradient       ....       0.005 sec  (  0.7%)
Prescreening matrices       ....       0.011 sec  (  1.4%)
RI-J Coulomb gradient       ....       0.083 sec  ( 11.0%)
COSX gradient               ....       0.250 sec  ( 32.9%)
XC gradient                 ....       0.291 sec  ( 38.3%)
------------------------------------------------------------------------------
                         ORCA GEOMETRY RELAXATION STEP
------------------------------------------------------------------------------

Reading the OPT-File                    .... done
Getting information on internals        .... done
Copying old internal coords+grads       .... done
Making the new internal coordinates     .... (new redundants).... done
Validating the new internal coordinates .... (new redundants).... done
Calculating the B-matrix                .... done
Calculating the G,G- and P matrices     .... done
Transforming gradient to internals      .... done
Projecting the internal gradient        .... done
Number of atoms                         ....   6
Number of internal coordinates          ....  51
Current Energy                          ....  -599.036620417 Eh
Current gradient norm                   ....     0.963290688 Eh/bohr
Maximum allowed component of the step   ....  0.300
Current trust radius                    ....  0.300
Updating the Hessian (BFGS)             .... done
Forming the augmented Hessian           .... done
Diagonalizing the augmented Hessian     .... done
Last element of RFO vector              ....  0.869138710
Lowest eigenvalues of augmented Hessian:
 -0.187871997  0.010116986  0.010913880  0.024043713  0.025381858
Length of the computed step             ....  0.569032763
Warning: the length of the step is outside the trust region - taking restricted step instead
The input lambda is                     ....    -0.187872
   iter:   1  x=   -0.294207  g=    2.198689 f(x)=     0.233798
   iter:   2  x=   -0.408793  g=    0.798123 f(x)=     0.091453
   iter:   3  x=   -0.488135  g=    0.366873 f(x)=     0.029109
   iter:   4  x=   -0.511182  g=    0.240051 f(x)=     0.005532
   iter:   5  x=   -0.512561  g=    0.214988 f(x)=     0.000296
   iter:   6  x=   -0.512565  g=    0.213609 f(x)=     0.000001
   iter:   7  x=   -0.512565  g=    0.213605 f(x)=     0.000000
   iter:   8  x=   -0.512565  g=    0.213605 f(x)=    -0.000000
The output lambda is                    ....    -0.512565 (8 iterations)
The final length of the internal step   ....  0.300000000
Converting the step to cartesian space:
 Initial RMS(Int)=    0.0420084025
Transforming coordinates:
 Iter   0:  RMS(Cart)=    0.0354787935 RMS(Int)=    0.0422151313
 Iter   1:  RMS(Cart)=    0.0005371031 RMS(Int)=    0.0005489368
 Iter   2:  RMS(Cart)=    0.0000147996 RMS(Int)=    0.0000156908
 Iter   3:  RMS(Cart)=    0.0000004069 RMS(Int)=    0.0000003942
 Iter   4:  RMS(Cart)=    0.0000000096 RMS(Int)=    0.0000000118
done
Storing new coordinates                 .... done

                                .--------------------.
          ----------------------|Geometry convergence|-------------------------
          Item                value                   Tolerance       Converged
          ---------------------------------------------------------------------
          Energy change      -0.2634817879            0.0000050000      NO
          RMS gradient        0.0801877484            0.0001000000      NO
          MAX gradient        0.5579229063            0.0003000000      NO
          RMS step            0.0420084025            0.0020000000      NO
          MAX step            0.1875105650            0.0040000000      NO
          ........................................................
          Max(Bonds)      0.0992      Max(Angles)    2.29
          Max(Dihed)        1.20      Max(Improp)    0.00
          ---------------------------------------------------------------------

The optimization has not yet converged - more geometry cycles are needed


    ---------------------------------------------------------------------------
                         Redundant Internal Coordinates
                            (Angstroem and degrees)

        Definition                    Value    dE/dq     Step     New-Value
    ----------------------------------------------------------------------------
     1. B(C   2,Cl  1)                1.3299 -0.557923  0.0992    1.4291   
     2. B(H   3,C   2)                1.4931  0.058004 -0.0563    1.4368   
     3. B(H   4,C   2)                1.4786  0.058393 -0.0565    1.4221   
     4. B(H   4,H   3)                1.7095  0.013771 -0.0150    1.6945   
     5. B(H   5,C   2)                1.5719  0.061155 -0.0600    1.5119   
     6. B(H   5,H   4)                1.7051  0.011468 -0.0133    1.6918   
     7. B(H   5,H   3)                1.7011  0.011288 -0.0132    1.6879   
     8. B(H   5,F   0)                2.0337  0.020867 -0.0223    2.0114   
     9. A(Cl  1,C   2,H   3)          139.39  0.014465   -1.43    137.97   
    10. A(Cl  1,C   2,H   5)          139.96  0.014251   -1.39    138.57   
    11. A(H   3,C   2,H   4)           70.23 -0.023156    2.29     72.52   
    12. A(H   4,C   2,H   5)           67.89 -0.023181    2.28     70.17   
    13. A(H   3,C   2,H   5)           67.37 -0.022793    2.25     69.61   
    14. A(Cl  1,C   2,H   4)          139.04  0.014670   -1.45    137.59   
    15. A(C   2,H   3,H   4)           54.49  0.011649   -1.15     53.34   
    16. A(H   4,H   3,H   5)           59.99 -0.000383    0.03     60.02   
    17. A(C   2,H   3,H   5)           58.53  0.012370   -1.24     57.29   
    18. A(C   2,H   4,H   5)           58.66  0.012495   -1.25     57.40   
    19. A(H   3,H   4,H   5)           59.76 -0.000461    0.04     59.79   
    20. A(C   2,H   4,H   3)           55.28  0.011506   -1.14     54.14   
    21. A(C   2,H   5,H   3)           54.11  0.010423   -1.01     53.10   
    22. A(F   0,H   5,H   3)           72.19  0.001183   -0.16     72.02   
[...]
Basis function cutoff            BFCut       ...    1.0000e-11
Integration weight cutoff        WCut        ...    1.0000e-14
Grids for H and He will be reduced by one unit

# of grid points (after initial pruning)     ...   6574 (   0.0 sec)
# of grid points (after weights+screening)   ...   6420 (   0.0 sec)
nearest neighbour list constructed           ...    0.0 sec
Grid point re-assignment to atoms done       ...    0.0 sec
Grid point division into batches done        ...    0.0 sec
Reduced shell lists constructed in    0.0 sec

Total number of grid points                  ...     6420
Total number of batches                      ...      103
Average number of points per batch           ...       62
Average number of grid points per atom       ...     1070
Average number of shells per batch           ...    22.77 (78.51%)
Average number of basis functions per batch  ...    48.33 (79.22%)
Average number of large shells per batch     ...    19.64 (86.28%)
Average number of large basis fcns per batch ...    40.86 (84.54%)
Maximum spatial batch extension              ...  14.67, 25.31, 17.95 au
Average spatial batch extension              ...   4.72,  5.72,  5.19 au

Overlap Fitting                  UseSFitting ... on
Constructing numerical overlap ... done (      0.0 sec)
Inverting numerical overlap    ... done (      0.0 sec)
Obtaining analytic overlap     ... done (      0.0 sec)
Final contraction and storage  ... done (      0.0 sec)

Time for X-Grid setup             =    0.089 sec
--------------
SCF ITERATIONS
--------------
ITER       Energy         Delta-E        Max-DP      RMS-DP      [F,P]     Damp
               ***  Starting incremental Fock matrix formation  ***
                      *** Initiating the SOSCF procedure ***
                      *** Re-Reading the Fockian *** 
                      *** Removing any level shift *** 
ITER      Energy       Delta-E        Grad      Rot      Max-DP    RMS-DP
  0   -599.37916192 -599.3791619188  0.000187  0.000187  0.000640  0.000037
               *** Restarting incremental Fock matrix formation ***
  1   -599.37916287  -0.0000009489  0.000061  0.000192  0.000499  0.000025
  2   -599.37916303  -0.0000001656  0.000024  0.000072  0.000283  0.000014
  3   -599.37916300   0.0000000298  0.000049  0.000035  0.000118  0.000007
  4   -599.37916303  -0.0000000299  0.000009  0.000008  0.000019  0.000001
  5   -599.37916303   0.0000000001  0.000007  0.000006  0.000013  0.000001
                  ***Gradient check signals convergence***
              ***Rediagonalizing the Fockian in SOSCF/NRSCF***

               *****************************************************
               *                     SUCCESS                       *
               *           SCF CONVERGED AFTER   6 CYCLES          *
               *****************************************************

Setting up the final grid:

General Integration Accuracy     IntAcc      ...  4.670
Radial Grid Type                 RadialGrid  ... Gauss-Chebyshev
Angular Grid (max. acc.)         AngularGrid ... Lebedev-302
Angular grid pruning method      GridPruning ... 3 (G Style)
Weight generation scheme         WeightScheme... Becke
Basis function cutoff            BFCut       ...    1.0000e-11
Integration weight cutoff        WCut        ...    1.0000e-14
Grids for H and He will be reduced by one unit

# of grid points (after initial pruning)     ...  29404 (   0.0 sec)
# of grid points (after weights+screening)   ...  28555 (   0.0 sec)
nearest neighbour list constructed           ...    0.0 sec
Grid point re-assignment to atoms done       ...    0.0 sec
Grid point division into batches done        ...    0.1 sec
Reduced shell lists constructed in    0.1 sec

Total number of grid points                  ...    28555
Total number of batches                      ...      449
Average number of points per batch           ...       63
Average number of grid points per atom       ...     4759
Average number of shells per batch           ...    20.58 (70.97%)
Average number of basis functions per batch  ...    43.50 (71.31%)
Average number of large shells per batch     ...    17.62 (85.60%)
Average number of large basis fcns per batch ...    36.41 (83.70%)
Maximum spatial batch extension              ...  20.64, 22.21, 21.64 au
Average spatial batch extension              ...   3.08,  3.34,  3.35 au

Final grid set up in    0.1 sec
Final integration                            ... done (   0.1 sec)
Change in XC energy                          ...    -0.001030980
Integrated number of electrons               ...    36.000070237
Previous integrated no of electrons          ...    35.996944964
Old exchange energy                            =    -11.022973932 Eh
New exchange energy                            =    -11.022715917 Eh
Exchange energy change after final integration =      0.000258015 Eh
Total energy after final integration           =   -599.379935998 Eh
Final COS-X integration done in                =     0.253 sec

----------------
TOTAL SCF ENERGY
----------------

Total Energy       :         -599.37993600 Eh          -16309.95724 eV

Components:
Nuclear Repulsion  :           86.66562643 Eh            2358.29159 eV
Electronic Energy  :         -686.04556243 Eh          -18668.24883 eV
One Electron Energy:        -1009.69776126 Eh          -27475.27290 eV
Two Electron Energy:          323.65219883 Eh            8807.02407 eV

Virial components:
Potential Energy   :        -1197.10949965 Eh          -32575.00557 eV
Kinetic Energy     :          597.72956365 Eh           16265.04833 eV
Virial Ratio       :            2.00276107


DFT components:
N(Alpha)           :       18.000035118253 electrons
N(Beta)            :       18.000035118253 electrons
N(Total)           :       36.000070236507 electrons
E(X)               :      -32.922836664725 Eh       
E(C)               :       -1.292705173054 Eh       
E(XC)              :      -34.215541837778 Eh       
DFET-embed. en.    :        0.000000000000 Eh       

---------------
SCF CONVERGENCE
---------------

  Last Energy change         ...    4.8863e-10  Tolerance :   1.0000e-08
  Last MAX-Density change    ...    2.6645e-15  Tolerance :   1.0000e-07
  Last RMS-Density change    ...    9.9613e-17  Tolerance :   5.0000e-09
  Last Orbital Gradient      ...    8.8981e-07  Tolerance :   1.0000e-05
  Last Orbital Rotation      ...    1.5180e-06  Tolerance :   1.0000e-05

             **** THE GBW FILE WAS UPDATED (ts_guess_hess_backwards_orca.gbw) ****
             **** DENSITY FILE WAS UPDATED (ts_guess_hess_backwards_orca.scfp) ****
             **** ENERGY FILE WAS UPDATED (ts_guess_hess_backwards_orca.en.tmp) ****
             **** THE GBW FILE WAS UPDATED (ts_guess_hess_backwards_orca.gbw) ****
             **** DENSITY FILE WAS UPDATED (ts_guess_hess_backwards_orca.scfp) ****
----------------
ORBITAL ENERGIES
----------------

  NO   OCC          E(Eh)            E(eV) 
   0   2.0000    -101.465008     -2761.0032 
   1   2.0000     -24.310935      -661.5342 
   2   2.0000     -10.084230      -274.4059 
   3   2.0000      -9.314941      -253.4724 
   4   2.0000      -7.055194      -191.9816 
   5   2.0000      -7.047620      -191.7755 
   6   2.0000      -7.047606      -191.7751 
   7   2.0000      -0.700759       -19.0686 
   8   2.0000      -0.647541       -17.6205 
   9   2.0000      -0.482897       -13.1403 
  10   2.0000      -0.248724        -6.7681 
  11   2.0000      -0.244485        -6.6528 
  12   2.0000      -0.209264        -5.6944 
  13   2.0000      -0.120063        -3.2671 
  14   2.0000      -0.119919        -3.2632 
  15   2.0000       0.009456         0.2573 
  16   2.0000       0.010897         0.2965 
  17   2.0000       0.011686         0.3180 
  18   0.0000       0.234777         6.3886 
  19   0.0000       0.278081         7.5670 
  20   0.0000       0.327640         8.9155 
  21   0.0000       0.338717         9.2169 
  22   0.0000       0.620735        16.8911 
  23   0.0000       0.623991        16.9797 
  24   0.0000       0.683003        18.5855 
  25   0.0000       0.773749        21.0548 
  26   0.0000       0.864774        23.5317 
  27   0.0000       0.868833        23.6422 
  28   0.0000       0.891906        24.2700 
  29   0.0000       0.951143        25.8819 
  30   0.0000       0.989346        26.9215 
  31   0.0000       0.990166        26.9438 
  32   0.0000       1.012493        27.5513 
  33   0.0000       1.013006        27.5653 
  34   0.0000       1.034887        28.1607 
  35   0.0000       1.099605        29.9218 
  36   0.0000       1.105960        30.0947 
  37   0.0000       1.395673        37.9782 
  38   0.0000       1.417249        38.5653 
  39   0.0000       1.453093        39.5407 
  40   0.0000       1.500816        40.8393 
  41   0.0000       1.583078        43.0777 
  42   0.0000       1.596973        43.4559 
  43   0.0000       1.720276        46.8111 
  44   0.0000       1.882545        51.2266 
  45   0.0000       1.936515        52.6953 
  46   0.0000       1.971823        53.6560 
  47   0.0000       2.176063        59.2137 
  48   0.0000       2.178550        59.2814 
  49   0.0000       2.246051        61.1181 
  50   0.0000       2.456815        66.8533 
  51   0.0000       2.629017        71.5392 
  52   0.0000       2.630207        71.5716 
  53   0.0000       2.928577        79.6906 
  54   0.0000       3.102726        84.4295 
  55   0.0000       3.112249        84.6886 
  56   0.0000       3.523376        95.8759 
  57   0.0000       3.523982        95.8924 
  58   0.0000       3.524743        95.9131 
  59   0.0000       3.528315        96.0103 
  60   0.0000       3.605346        98.1065 

                    ********************************
                    * MULLIKEN POPULATION ANALYSIS *
                    ********************************

-----------------------
MULLIKEN ATOMIC CHARGES
-----------------------
   0 F :   -0.744178
   1 Cl:   -0.416328
   2 C :   -0.014968
   3 H :    0.053506
   4 H :    0.054192
   5 H :    0.067776
Sum of atomic charges:   -1.0000000

--------------------------------
MULLIKEN REDUCED ORBITAL CHARGES
--------------------------------
  0 F s       :     3.982526  s :     3.982526
      pz      :     1.974044  p :     5.761454
      px      :     1.831011
      py      :     1.956399
      dz2     :     0.000033  d :     0.000198
      dxz     :     0.000033
      dyz     :     0.000001
      dx2y2   :     0.000083
      dxy     :     0.000048
  1 Cls       :     5.959055  s :     5.959055
      pz      :     3.985899  p :    11.436221
      px      :     3.466767
      py      :     3.983556
      dz2     :     0.003266  d :     0.021052
      dxz     :     0.003949
      dyz     :     0.000072
      dx2y2   :     0.009685
      dxy     :     0.004080
  2 C s       :     3.130231  s :     3.130231
      pz      :     1.072068  p :     2.853848
      px      :     0.678310
      py      :     1.103470
      dz2     :     0.007059  d :     0.030889
      dxz     :     0.003076
      dyz     :     0.005744
      dx2y2   :     0.010889
      dxy     :     0.004122
  3 H s       :     0.922049  s :     0.922049
      pz      :     0.010584  p :     0.024445
      px      :     0.006649
      py      :     0.007212
  4 H s       :     0.921249  s :     0.921249
      pz      :     0.011455  p :     0.024559
      px      :     0.006368
      py      :     0.006736
  5 H s       :     0.905758  s :     0.905758
      pz      :     0.004522  p :     0.026466
      px      :     0.010135
      py      :     0.011808


                     *******************************
                     * LOEWDIN POPULATION ANALYSIS *
                     *******************************

----------------------
LOEWDIN ATOMIC CHARGES
----------------------
   0 F :   -0.743406
   1 Cl:   -0.222297
   2 C :   -0.081330
   3 H :    0.015339
   4 H :    0.015421
   5 H :    0.016274

-------------------------------
LOEWDIN REDUCED ORBITAL CHARGES
-------------------------------
  0 F s       :     3.962585  s :     3.962585
      pz      :     1.978017  p :     5.780618
      px      :     1.837240
      py      :     1.965362
      dz2     :     0.000028  d :     0.000202
      dxz     :     0.000037
      dyz     :     0.000002
      dx2y2   :     0.000072
      dxy     :     0.000063
  1 Cls       :     5.833984  s :     5.833984
      pz      :     3.968905  p :    11.365171
      px      :     3.429341
      py      :     3.966925
      dz2     :     0.003868  d :     0.023142
      dxz     :     0.003729
      dyz     :     0.000070
      dx2y2   :     0.011473
      dxy     :     0.004003
  2 C s       :     2.944414  s :     2.944414
      pz      :     1.120038  p :     3.063976
      px      :     0.806558
      py      :     1.137379
      dz2     :     0.016573  d :     0.072941
      dxz     :     0.007897
      dyz     :     0.014000
      dx2y2   :     0.023660
      dxy     :     0.010811
  3 H s       :     0.912032  s :     0.912032
      pz      :     0.032446  p :     0.072629
      px      :     0.018129
      py      :     0.022054
  4 H s       :     0.911554  s :     0.911554
      pz      :     0.035623  p :     0.073025
      px      :     0.016834
      py      :     0.020567
  5 H s       :     0.904407  s :     0.904407
      pz      :     0.012897  p :     0.079319
      px      :     0.027271
      py      :     0.039151


                      *****************************
                      * MAYER POPULATION ANALYSIS *
                      *****************************

  NA   - Mulliken gross atomic population
  ZA   - Total nuclear charge
  QA   - Mulliken gross atomic charge
  VA   - Mayer's total valence
  BVA  - Mayer's bonded valence
  FA   - Mayer's free valence

  ATOM       NA         ZA         QA         VA         BVA        FA
  0 F      9.7442     9.0000    -0.7442     0.4734     0.4734    -0.0000
  1 Cl    17.4163    17.0000    -0.4163     0.8109     0.8109     0.0000
  2 C      6.0150     6.0000    -0.0150     3.8429     3.8429     0.0000
  3 H      0.9465     1.0000     0.0535     1.0310     1.0310     0.0000
  4 H      0.9458     1.0000     0.0542     1.0333     1.0333     0.0000
  5 H      0.9322     1.0000     0.0678     1.0590     1.0590    -0.0000

  Mayer bond orders larger than 0.100000
B(  0-F ,  2-C ) :   0.2116 B(  1-Cl,  2-C ) :   0.7195 B(  2-C ,  3-H ) :   0.9776 
B(  2-C ,  4-H ) :   0.9769 B(  2-C ,  5-H ) :   0.9573 


------------------
HIRSHFELD ANALYSIS
------------------

Total integrated alpha density =     17.998472482
Total integrated beta density  =     17.998472482

  ATOM     CHARGE      SPIN    
   0 F   -0.710695    0.000000
   1 Cl  -0.323969    0.000000
   2 C   -0.033652    0.000000
   3 H    0.023729    0.000000
   4 H    0.024167    0.000000
   5 H    0.023473    0.000000

  TOTAL  -0.996945    0.000000

-------
TIMINGS
-------

Total SCF time: 0 days 0 hours 0 min 2 sec 

Total time                  ....       2.112 sec
Sum of individual times     ....       2.051 sec  ( 97.1%)

Fock matrix formation       ....       1.805 sec  ( 85.5%)
  Split-RI-J                ....       0.439 sec  ( 24.3% of F)
  Chain of spheres X        ....       1.190 sec  ( 65.9% of F)
  XC integration            ....       0.173 sec  (  9.6% of F)
    Basis function eval.    ....       0.059 sec  ( 34.1% of XC)
    Density eval.           ....       0.035 sec  ( 20.2% of XC)
    XC-Functional eval.     ....       0.029 sec  ( 17.0% of XC)
    XC-Potential eval.      ....       0.041 sec  ( 23.8% of XC)
Diagonalization             ....       0.000 sec  (  0.0%)
Density matrix formation    ....       0.000 sec  (  0.0%)
Population analysis         ....       0.010 sec  (  0.5%)
Initial guess               ....       0.001 sec  (  0.0%)
Orbital Transformation      ....       0.000 sec  (  0.0%)
Orbital Orthonormalization  ....       0.000 sec  (  0.0%)
DIIS solution               ....       0.000 sec  (  0.0%)
SOSCF solution              ....       0.002 sec  (  0.1%)
Grid generation             ....       0.233 sec  ( 11.0%)


-------------------------------------------------------------------------------
                          DFT DISPERSION CORRECTION                            
                                                                               
                              DFTD3 V3.1  Rev 1                                
                          USING Becke-Johnson damping                          
-------------------------------------------------------------------------------
The PBE0 functional is recognized
Active option DFTDOPT                   ...         4   

molecular C6(AA) [au] = 486.391757 


            DFT-D V3
 parameters
 s6 scaling factor         :     1.0000 
 a1 scaling factor         :     0.4145 
 s8 scaling factor         :     1.2177 
 a2 scaling factor         :     4.8593 
 ad hoc parameters k1-k3   :    16.0000     1.3333    -4.0000 

 Edisp/kcal,au: -1.505548128474  -0.002399243406 
 E6   /kcal   :  -0.951856610 
 E8   /kcal   :  -0.553691518 
 % E8         :  36.776739829 

-------------------------   ----------------
Dispersion correction           -0.002399243
-------------------------   ----------------


-------------------------   --------------------
FINAL SINGLE POINT ENERGY      -599.382335241417
-------------------------   --------------------

                                *** OPTIMIZATION RUN DONE ***

                            ***************************************
                            *     ORCA property calculations      *
                            ***************************************

                                    ---------------------
                                    Active property flags
                                    ---------------------
   (+) Dipole Moment


------------------------------------------------------------------------------
                       ORCA ELECTRIC PROPERTIES CALCULATION
------------------------------------------------------------------------------

Dipole Moment Calculation                       ... on
Quadrupole Moment Calculation                   ... off
Polarizability Calculation                      ... off
GBWName                                         ... ts_guess_hess_backwards_orca.gbw
Electron density file                           ... ts_guess_hess_backwards_orca.scfp
The origin for moment calculation is the CENTER OF MASS  = (-0.326225,  0.064771  0.020629)

-------------
DIPOLE MOMENT
-------------
                                X             Y             Z
Electronic contribution:      3.89808       0.29937      -0.14123
Nuclear contribution   :     -1.53357      -0.33484       0.03790
                        -----------------------------------------
Total Dipole Moment    :      2.36451      -0.03547      -0.10333
                        -----------------------------------------
Magnitude (a.u.)       :      2.36704
Magnitude (Debye)      :      6.01653



--------------------
Rotational spectrum 
--------------------
 
Rotational constants in cm-1:     5.044840     0.074711     0.074685 
Rotational constants in MHz : 151240.506614  2239.794356  2238.996746 

 Dipole components along the rotational axes: 
x,y,z [a.u.] :    -2.365707     0.079169     0.004656 
x,y,z [Debye]:    -6.013151     0.201231     0.011833 

 

Timings for individual modules:

Sum of individual times         ...       97.386 sec (=   1.623 min)
GTO integral calculation        ...        2.219 sec (=   0.037 min)   2.3 %
SCF iterations                  ...       74.032 sec (=   1.234 min)  76.0 %
SCF Gradient evaluation         ...       20.518 sec (=   0.342 min)  21.1 %
Geometry relaxation             ...        0.617 sec (=   0.010 min)   0.6 %
                             ****ORCA TERMINATED NORMALLY****
TOTAL RUN TIME: 0 days 0 hours 1 minutes 38 seconds 549 msec
