6
 energy: -13.191605770476 gnorm: 0.000387392520 xtb: 6.2.3 (830e466)
C        -0.00574967262589   -0.01085571761125   -0.02597769822345
F         0.58591477377632   -1.09061806899196    0.59503434605500
H        -0.46261868045701    0.60478393745781    0.74798789369103
H         0.77787505033051    0.54155220814803   -0.54405213169454
H        -0.76278974746505   -0.35174309896199   -0.73487361835079
Cl       -2.39536172355888    0.30689073995933   -2.30085879147730
