6
 energy: -13.146556242725 gnorm: 0.000295949088 xtb: 6.2.3 (830e466)
F         0.54470891457744    0.23558700948302   -0.68260507049656
Cl       -3.35197675413175   -0.19474530505911   -0.84446286995243
C        -1.89896495835762   -0.03382149988268   -1.84914696573758
H        -2.04069908500437    0.84743700674884   -2.47072399993119
H        -0.95570502174292    0.07141674393455   -1.23022731278714
H        -1.84329309534079   -0.92587395522462   -2.46878378109514
