22
 energy: -36.957418732525 gnorm: 0.153583591192 xtb: 6.2.3 (830e466)
O         0.12300000000000    2.55060000000000   -0.45310000000000
C         0.70620000000000    1.44720000000000   -0.38890000000000
C         1.98030000000000    1.36550000000000    0.30660000000000
C         2.31490000000000    0.19110000000000    0.82440000000000
C         0.10920000000000    0.23790000000000   -1.01230000000000
C        -1.38900000000000    0.32400000000000   -1.03550000000000
N        -1.81240000000000   -1.07700000000000   -0.84240000000000
C        -0.99790000000000   -1.27540000000000    0.37900000000000
C        -1.49030000000000   -0.10760000000000    1.15600000000000
C        -1.80470000000000    0.86670000000000    0.31030000000000
C         0.35710000000000   -1.02050000000000   -0.23140000000000
C         1.45210000000000   -0.96730000000000    0.70640000000000
O         1.68350000000000   -1.94350000000000    1.45370000000000
H         2.65090000000000    2.21850000000000    0.41220000000000
H         3.28180000000000    0.15690000000000    1.34390000000000
H         0.51050000000000    0.16660000000000   -2.04470000000000
H        -1.83930000000000    0.80910000000000   -1.87010000000000
H        -1.38240000000000   -1.67410000000000   -1.57710000000000
H        -1.13920000000000   -2.23460000000000    0.83340000000000
H        -1.58730000000000   -0.03390000000000    2.22550000000000
H        -2.25100000000000    1.83470000000000    0.48210000000000
H         0.52390000000000   -1.83490000000000   -0.97780000000000
22
 energy: -36.977069409602 gnorm: 0.070011839510 xtb: 6.2.3 (830e466)
O         0.14957304531676    2.58221404521432   -0.48002917612836
C         0.71157168981755    1.49780180066645   -0.41496087327268
C         1.99691157162442    1.36376819469502    0.27381470796666
C         2.34189241040054    0.18955374745436    0.82191563493531
C         0.11741843812934    0.26264012471909   -1.02564938851895
C        -1.42070377536791    0.31882313515004   -1.04321802052627
N        -1.84145010176535   -1.07891171514402   -0.85248200201594
C        -1.01821706224716   -1.28236969996735    0.35942485488118
C        -1.49464915568192   -0.11206160951119    1.16757874325134
C        -1.80950494446233    0.85722160273417    0.31743283802245
C         0.38261658632557   -1.01406672206264   -0.22585090724705
C         1.48714259188146   -0.99045307552514    0.74808270315420
O         1.70188399922077   -1.95127998452187    1.48110278373712
H         2.62056810923905    2.23804022560275    0.41030834426758
H         3.27163591591015    0.12974943347776    1.37906839798164
H         0.52373675815163    0.18548252342982   -2.04673341588360
H        -1.87230831053422    0.80831171950206   -1.89286744827808
H        -1.47110773354281   -1.67131915121772   -1.60583338457508
H        -1.14469251225161   -2.25176643181305    0.82406707011538
H        -1.58143108449860   -0.06341602264132    2.23799922186379
H        -2.22604575131609    1.83011856306164    0.49484274924043
H         0.57505931565076   -1.84808070330319   -0.92781343297107
22
 energy: -36.982608470984 gnorm: 0.018972635238 xtb: 6.2.3 (830e466)
O         0.18604121655241    2.61769528313032   -0.53081642172056
C         0.71265977654581    1.53608923084509   -0.43823883572855
C         1.99972042579253    1.36109625771290    0.26025732437532
C         2.34720647645777    0.20111374318490    0.83249507031437
C         0.12222439794552    0.27695038868157   -1.03452256232844
C        -1.44457605135300    0.31709631582277   -1.04149077958685
N        -1.84957470383685   -1.07749012240997   -0.86119565788981
C        -1.04065731901855   -1.29663024144101    0.34333610252491
C        -1.50316101665137   -0.12659432978519    1.17596762988806
C        -1.80681375869477    0.84853008542528    0.32906364486845
C         0.39220168199152   -1.00455816520763   -0.21875420526966
C         1.49741180444417   -0.99817929392538    0.79196397928734
O         1.70833451201701   -1.94982462177735    1.50792783115872
H         2.60575029160806    2.24484844613315    0.38568606428588
H         3.26051304982900    0.11485544256765    1.40242977404976
H         0.52653743653456    0.18844173315135   -2.04873334149358
H        -1.89218019473576    0.81141630825587   -1.89928485009736
H        -1.52851094383537   -1.66743045014128   -1.62836552708096
H        -1.15017727609011   -2.27709828411721    0.80225323738572
H        -1.57165579444852   -0.11133013644258    2.24745697598544
H        -2.18583472973872    1.83341034129871    0.51749312394579
H         0.61444071868466   -1.84240793096197   -0.89472857687397
22
 energy: -36.983942208494 gnorm: 0.011160769178 xtb: 6.2.3 (830e466)
O         0.22037351762359    2.63829663769693   -0.60157984839932
C         0.72151011288351    1.54628825861843   -0.46661295317916
C         1.99740267014676    1.36537797073087    0.25829101680304
C         2.33680577754863    0.21883829900642    0.85355596232502
C         0.12371765368915    0.27561664014865   -1.03957010078013
C        -1.45229396743126    0.31925952155950   -1.03321172858948
N        -1.86209158408637   -1.06931456797649   -0.86327554227165
C        -1.04985663455905   -1.31226205906355    0.32614695128741
C        -1.50122024827778   -0.15132840620342    1.17920460938719
C        -1.79083869566327    0.84008299218189    0.34602018184362
C         0.39517723944134   -1.00051854068632   -0.21686689943177
C         1.49142385690128   -0.98918698908598    0.81497006217435
O         1.69374903202829   -1.93454594225154    1.54075213329627
H         2.60512392710666    2.25198433892232    0.36485157172861
H         3.24281915920373    0.12742943222321    1.43746854542261
H         0.51714847772260    0.17703231412877   -2.05604614480813
H        -1.90128844291214    0.82393535712811   -1.88430857052610
H        -1.58288024702215   -1.65977615546873   -1.64781439833314
H        -1.15241389680885   -2.30055452932656    0.76871995736431
H        -1.55524459102209   -0.16396565830015    2.25201661876645
H        -2.13934030191918    1.83471380759262    0.55150546791617
H         0.64211718540662   -1.83740272157499   -0.88401689199615
22
 energy: -36.984832804785 gnorm: 0.010195000152 xtb: 6.2.3 (830e466)
O         0.25730180404824    2.64664683048041   -0.68512462254026
C         0.73448618778764    1.54795488761763   -0.50250305807106
C         1.99136579305136    1.37091707589693    0.25938848366981
C         2.31980738839011    0.23547255432159    0.87530554247184
C         0.12435791947087    0.27062701340717   -1.04587966217648
C        -1.45625119672609    0.32429336905896   -1.02168457391900
N        -1.86684422580400   -1.06058487944766   -0.86599382329303
C        -1.05618677809621   -1.32679821026546    0.31107849227493
C        -1.49068434765853   -0.17491693280823    1.18468761848364
C        -1.76973958847520    0.83199255133327    0.36674644590477
C         0.39487876645181   -0.99914511121891   -0.21960937745262
C         1.47492987732753   -0.97549482665474    0.83404407092393
O         1.66961184937155   -1.91568251315232    1.57054501354018
H         2.59849590287463    2.26182370444979    0.35731882021295
H         3.21746256610517    0.14366911121284    1.47493407131059
H         0.49729838675001    0.16203370578205   -2.06953036278013
H        -1.90834773147361    0.84236843036748   -1.86213701023997
H        -1.62068843656468   -1.64776070783596   -1.66166994725470
H        -1.15388937345236   -2.32272854987541    0.73443164201177
H        -1.52938092223677   -0.21250609319659    2.25739818339554
H        -2.09248282358619    1.83166281831659    0.58924038967318
H         0.66439898244474   -1.83384422778943   -0.88078633614587
22
 energy: -36.985578553955 gnorm: 0.011562924480 xtb: 6.2.3 (830e466)
O         0.29194062421292    2.64232688736125   -0.77066113250211
C         0.74831165720972    1.54257703754331   -0.54000217740170
C         1.98284127386464    1.37711855126794    0.26047221143209
C         2.29831519572330    0.25045977438961    0.89682370411047
C         0.12554846564676    0.26304976563063   -1.05442437553057
C        -1.45617824902694    0.33103419320691   -1.00862482376245
N        -1.87108580030774   -1.05036802576719   -0.86680358953778
C        -1.05665750273221   -1.33883879725670    0.29682146422440
C        -1.47265011329768   -0.19671393367308    1.19103933221462
C        -1.74487603854831    0.82434289677156    0.38890136876797
C         0.39629888121750   -1.00130322908364   -0.22805336576628
C         1.45679545352599   -0.96250241846950    0.84442592701694
O         1.63795500567775   -1.89400114400717    1.59784775889952
H         2.58649835873077    2.27188741861385    0.35873503525172
H         3.18180986650652    0.16615146063149    1.52065460274958
H         0.47068702112341    0.14459121338228   -2.08815330897964
H        -1.91250505272855    0.86548518449976   -1.83554029702667
H        -1.65264985276235   -1.63205122438581   -1.67164727348717
H        -1.15177124706549   -2.34130679372704    0.70185795015495
H        -1.49564217207115   -0.25376148318142    2.26252006648926
H        -2.04626279972428    1.82603708568899    0.62754934639703
H         0.68317702482546   -1.83421441943606   -0.88353842371418
22
 energy: -36.986310357737 gnorm: 0.011712706660 xtb: 6.2.3 (830e466)
O         0.33233036503686    2.63056895477643   -0.87270968382311
C         0.76532102160538    1.53377740983711   -0.58597567616009
C         1.97108972211233    1.38525604110138    0.25970314695943
C         2.26874841308904    0.26680962989227    0.92045632981810
C         0.12786948480494    0.25332714050970   -1.06724586570058
C        -1.45292306556487    0.34061520679624   -0.99203342565526
N        -1.87601124521767   -1.03777026117398   -0.86706650689143
C        -1.05324704476217   -1.35193378089330    0.28136968227767
C        -1.44742129679373   -0.22184215788699    1.19987124023632
C        -1.71340857732475    0.81550659657228    0.41678963350575
C         0.39988902854108   -1.00672504729829   -0.24081378506940
C         1.43249263799847   -0.94799726770570    0.85497206786510
O         1.59799347816072   -1.86900189354405    1.62609850307190
H         2.56817199892516    2.28331449874247    0.36644786730121
H         3.13139578008103    0.19621669885320    1.57485472632612
H         0.43743912147690    0.12238494960636   -2.11230338655195
H        -1.91447502759294    0.89638760115466   -1.80171078040215
H        -1.68266733613860   -1.60982218663588   -1.68236172070568
H        -1.14842628596927   -2.36131228175916    0.66705935927040
H        -1.45415927951249   -0.29697184371367    2.26947386809478
H        -1.99387063144149    1.81775756354118    0.67427947916814
H         0.70376873848612   -1.83854557077228   -0.88895507293525
22
 energy: -36.986929323535 gnorm: 0.012207872340 xtb: 6.2.3 (830e466)
O         0.38019066270568    2.61480687523356   -0.98847819423474
C         0.78479525421950    1.52428707574053   -0.63828930559221
C         1.95519590288293    1.39506089409981    0.25823084941180
C         2.23145383649712    0.28533621796533    0.94576329619898
C         0.13077862663123    0.24275622389974   -1.08377339961571
C        -1.44756404065606    0.35236252003847   -0.97234118505451
N        -1.88304904781788   -1.02313265302820   -0.86617352520045
C        -1.04722824763667   -1.36615554304815    0.26487002120671
C        -1.41715739667560   -0.25003019195850    1.21035939097187
C        -1.67658659166917    0.80550947266154    0.44932207952999
C         0.40575059026823   -1.01489548252397   -0.25633987267941
C         1.40683781892421   -0.93514682850660    0.86439935908894
O         1.55348847289746   -1.84351167469130    1.65462473080423
H         2.54570375168555    2.29492478709754    0.37447780126062
H         3.06650089580287    0.23386351786591    1.63683404362544
H         0.40121814659720    0.09668713729553   -2.13828790147876
H        -1.91494301521161    0.93222646113982   -1.76216819534196
H        -1.71095477961140   -1.58157160344990   -1.69440733322832
H        -1.14578291569213   -2.38252272035303    0.63105579076436
H        -1.40879923624619   -0.34279271535122    2.27806852417079
H        -1.93631963847576    1.80741850665771    0.72850348336222
H         0.72637095058051   -1.84548027678467   -0.89605045796986
22
 energy: -36.987369701437 gnorm: 0.007745007072 xtb: 6.2.3 (830e466)
O         0.42919702412301    2.59445122357598   -1.09258518738641
C         0.80518138069806    1.51505104160107   -0.68864472696014
C         1.93844231924418    1.40447146759025    0.25497228736542
C         2.19346374700982    0.30380086141363    0.96655263784667
C         0.13351766829860    0.23304739397478   -1.10072189948229
C        -1.44084641421776    0.36405510226544   -0.95266733605332
N        -1.89042370726160   -1.00872010042365   -0.86417652849565
C        -1.04189978958240   -1.37877927167467    0.25034499456806
C        -1.38938163111932   -0.27628169270568    1.21985219467626
C        -1.64100640140276    0.79593267522292    0.47979359497311
C         0.41143066258958   -1.02343636168065   -0.26996116922394
C         1.38298729380132   -0.92446703661016    0.87391707539309
O         1.51494682934007   -1.82232639220065    1.67700294312648
H         2.52144868153915    2.30671861496167    0.38235389297826
H         2.99976439673800    0.27187508209328    1.69034325786323
H         0.36758585562167    0.07156290254992   -2.16081300685090
H        -1.91270394526926    0.96545565613565   -1.72379263314463
H        -1.73053660699987   -1.55171475319134   -1.70438353186558
H        -1.14690566954805   -2.40077546041551    0.59958322077262
H        -1.37021560953715   -0.38433395769624    2.28574256486487
H        -1.88212135133100    1.79672588425771    0.77944802744891
H         0.74797526726575   -1.85231287904379   -0.90196067241408
22
 energy: -36.987504036756 gnorm: 0.022913792643 xtb: 6.2.3 (830e466)
O         0.48997909198849    2.58251816562458   -1.20814283159869
C         0.82231829853537    1.50746057515386   -0.72947030861061
C         1.92006861623173    1.41273206587806    0.25435553650311
C         2.15569742717666    0.32171923294548    0.98749562007948
C         0.13427677520799    0.22565167010125   -1.11299061210979
C        -1.43487177664633    0.37553112970874   -0.93244432379819
N        -1.89687332850746   -0.99525855387573   -0.86120405892483
C        -1.03818304243651   -1.39025498217438    0.23826040336918
C        -1.36621600665968   -0.30122662420649    1.22928675943865
C        -1.61122137299523    0.78557583342657    0.50881987305154
C         0.41550624025814   -1.03114199269497   -0.28061235431555
C         1.36460431475221   -0.91805265070889    0.88028022789152
O         1.48674572933853   -1.80933261689873    1.69005520063694
H         2.49822267271862    2.31654654686481    0.38619197599737
H         2.93429539917634    0.30814746378491    1.73996722187178
H         0.33788795041360    0.05016554618892   -2.17521934503806
H        -1.91028960828503    0.99503163394225   -1.68674313622655
H        -1.74257312898958   -1.52224747290751   -1.71316334094683
H        -1.14964092509883   -2.41723416174416    0.57192161651000
H        -1.33907829713194   -0.42403959540751    2.29375235892449
H        -1.83694036811110    1.78381804344301    0.82789010427409
H         0.76618533906405   -1.85610925644413   -0.90808658697904
22
 energy: -36.987762388663 gnorm: 0.006125965152 xtb: 6.2.3 (830e466)
O         0.51461988056530    2.56392855173126   -1.23556920921263
C         0.83333928643073    1.50184142165278   -0.74918374933304
C         1.91118735501856    1.41550787025779    0.25015432594281
C         2.13864377024975    0.32980306760192    0.99097131495665
C         0.13435129609317    0.22228238082344   -1.12081565037873
C        -1.42979335686552    0.38094256461464   -0.92375295478076
N        -1.89939480991258   -0.98875856069607   -0.85779461823730
C        -1.03631822863106   -1.39197075451304    0.23530429763069
C        -1.35759998811848   -0.30830317596479    1.23207489979932
C        -1.59781809518278    0.78299318498442    0.51863375302214
C         0.41709176183634   -1.03496554245187   -0.28488893159998
C         1.36151426230964   -0.91866764558550    0.87824900351012
O         1.48102462463114   -1.80778294255188    1.68977001349885
H         2.48340522636882    2.32249284236876    0.38952971827651
H         2.90004909976061    0.32737664774604    1.75955740149924
H         0.32388047073466    0.04039842455901   -2.18156073919421
H        -1.90611149020795    1.00500717420535   -1.67165737801982
H        -1.73880193222418   -1.50842573401528   -1.71438522709488
H        -1.15362078330600   -2.41914078887595    0.56533826896073
H        -1.33207413992651   -0.43497882682336    2.29588586214701
H        -1.81827529520610    1.77943136709062    0.84475822782683
H         0.77060108558247   -1.85901152615838   -0.91041862921952
22
 energy: -36.987881090239 gnorm: 0.006598357689 xtb: 6.2.3 (830e466)
O         0.54838820916458    2.55298424198432   -1.29678011079190
C         0.84647573107250    1.49810057275703   -0.77852281077091
C         1.89940243026749    1.42048609892078    0.25391865229102
C         2.11865508652438    0.34021708527779    1.00540591560445
C         0.13401609958668    0.21786618926919   -1.12883232223856
C        -1.42759593734142    0.38663600537980   -0.91392929506014
N        -1.90244452370518   -0.98185099490830   -0.85556835973342
C        -1.03607421731941   -1.39687229650650    0.22989970237800
C        -1.34703933203208   -0.31900200795187    1.23729355613341
C        -1.58150524924703    0.78030269817642    0.53290657584378
C         0.41761980092946   -1.03748105734586   -0.28993989908618
C         1.35477364467040   -0.91610184533768    0.88086110804077
O         1.47746512828712   -1.80708908870708    1.68920817489307
H         2.46465593857373    2.33166636843591    0.40190097831501
H         2.86633566430530    0.34488142073214    1.78767880496100
H         0.30462166942920    0.02727380040180   -2.19322398454721
H        -1.90719478231680    1.01865063295837   -1.65390177878723
H        -1.74572601815421   -1.49652929270449   -1.71739728186976
H        -1.15449602569137   -2.42646048779370    0.55262039778117
H        -1.31660354881701   -0.45427188398843    2.30076098831344
H        -1.79095136610805    1.77737117212677    0.86940597185790
H         0.77712159792179   -1.86077733117649   -0.91356498352771
22
 energy: -36.988040485946 gnorm: 0.012390239861 xtb: 6.2.3 (830e466)
O         0.59552751400855    2.53753072332182   -1.36450582275036
C         0.85918656413574    1.49110181646260   -0.80182527504450
C         1.88410442652635    1.42529509339719    0.25979779550410
C         2.09691629583551    0.35128167828054    1.02098349438332
C         0.13241309569415    0.21437724775546   -1.13343857748200
C        -1.42471653854040    0.39318718492870   -0.90401239442578
N        -1.90463568548371   -0.97413457876936   -0.85240284418508
C        -1.03777549828078   -1.39933137974200    0.22711086267584
C        -1.33996369104098   -0.32643377847871    1.24275479115573
C        -1.56859288170200    0.77872936488760    0.54537414133678
C         0.41598842450132   -1.03904800630064   -0.29298850817545
C         1.35276623347741   -0.91603775715271    0.88051557292592
O         1.49269735853636   -1.81748590069461    1.67421199431098
H         2.43959275219773    2.34241327161714    0.41420891677386
H         2.82921199033004    0.36306816950136    1.81572466290807
H         0.28602925588133    0.01720688775104   -2.19987319523942
H        -1.90728646042433    1.03143868417419   -1.63728874652466
H        -1.74667391420765   -1.48560282754538   -1.71653476588311
H        -1.15659593955572   -2.43074407018618    0.54348067911521
H        -1.30718228982097   -0.46959029814788    2.30549065248649
H        -1.76933483063504    1.77475307690760    0.89016646038744
H         0.77822381856713   -1.86197460196784   -0.91674989425339
22
 energy: -36.988294468849 gnorm: 0.013581514386 xtb: 6.2.3 (830e466)
O         0.63813128381391    2.51963482949642   -1.41048400782420
C         0.86843519273236    1.48353538959355   -0.81438165797110
C         1.86766882009799    1.42862957293362    0.27187967580864
C         2.08221905071898    0.35809257439244    1.03546759791765
C         0.12950919034823    0.21273332252449   -1.13390110228468
C        -1.42386476018506    0.39687623804468   -0.90053446308401
N        -1.90531525895955   -0.96943282473123   -0.84744238849966
C        -1.04118575199550   -1.39544877691579    0.23115520084778
C        -1.33999260037188   -0.32134841793752    1.24668371156714
C        -1.56571811519366    0.78337808508974    0.54809361682049
C         0.41141185823513   -1.03798560443876   -0.29355013885232
C         1.36458964212408   -0.92286297894385    0.87011442480732
O         1.54191884126146   -1.84690513966600    1.63446850474410
H         2.40955182040315    2.35392322519006    0.43420569679516
H         2.80219265358906    0.37357132219104    1.84279010695326
H         0.27543580792770    0.01360432922883   -2.20175310751069
H        -1.90969924422142    1.03375626551241   -1.63330789215926
H        -1.74516923343460   -1.48619961845830   -1.70961956651250
H        -1.15672568201097   -2.42659344662102    0.54749404674514
H        -1.30672072811720   -0.46688742384921    2.30915441048811
H        -1.76217503638054    1.77946968618760    0.89401070420018
H         0.76540224961835   -1.86354060882331   -0.92034337299656
22
 energy: -36.988537258517 gnorm: 0.013219712290 xtb: 6.2.3 (830e466)
O         0.67209274244240    2.50045217196729   -1.43851438210309
C         0.87375157389611    1.47631089816838   -0.81889728522658
C         1.84839921900101    1.43265567024593    0.28876800641835
C         2.06748998024963    0.36160157499968    1.04980510341276
C         0.12812920039001    0.21120900583526   -1.13336709961257
C        -1.42336433125968    0.39840566648131   -0.90126214477601
N        -1.90639453388050   -0.96689411928102   -0.84064299354207
C        -1.04277726347610   -1.38805987034885    0.24006388601976
C        -1.34047301703747   -0.30858813484600    1.24955541280914
C        -1.56680234015957    0.79171539356219    0.54501836794414
C         0.40793224116534   -1.03823699810926   -0.29400437747825
C         1.38319272448508   -0.93432056256326    0.85250905872497
O         1.60715181525732   -1.88324708832733    1.57872615198739
H         2.37596409939199    2.36443577278936    0.46052513749266
H         2.77856837356755    0.37934635558362    1.86374042693534
H         0.27369516338106    0.01159092179766   -2.20052594261542
H        -1.91066430632712    1.03032578871097   -1.63718991526225
H        -1.74477236141391   -1.49034699475145   -1.69919475136176
H        -1.15686456836619   -2.41756111555594    0.56068121373905
H        -1.30734125224212   -0.45042744665464    2.31171791455689
H        -1.76296286855497    1.78849010442596    0.88634903612865
H         0.74594970949016   -1.86885699412998   -0.92366082419109
22
 energy: -36.988750498754 gnorm: 0.019043531186 xtb: 6.2.3 (830e466)
O         0.73468378577140    2.46780165865345   -1.51511077842109
C         0.88850120063900    1.46333055674740   -0.84609172031600
C         1.81571817279045    1.44132853920839    0.30630293548280
C         2.03087465102490    0.37141251495105    1.07065950381497
C         0.12906760107010    0.20408161380075   -1.14340477844907
C        -1.41982821235185    0.40462489845300   -0.89307952653603
N        -1.91133768764190   -0.95806085766621   -0.82884401895772
C        -1.03845300199733   -1.38420220718155    0.24552260433364
C        -1.32294245308019   -0.30360498564869    1.25741664635281
C        -1.54965210214525    0.79777350736577    0.55508408040607
C         0.40923348954855   -1.04550713296801   -0.30484258598769
C         1.39731162243066   -0.94608831791514    0.82804433631056
O         1.66329647810577   -1.91146323599781    1.52039479138719
H         2.32025877982406    2.38206465146706    0.50126689436295
H         2.71040849679211    0.40602533918346    1.92371123081687
H         0.25697161054388   -0.00276946485305   -2.21165054340798
H        -1.91002535935988    1.03982897520368   -1.62430587794004
H        -1.75689454102373   -1.48021658848236   -1.69031792551331
H        -1.15668044535302   -2.41354515001232    0.56526608471072
H        -1.28337262210652   -0.44579243620777    2.31876057774673
H        -1.73840353474035    1.79490583830241    0.89884761514292
H         0.73116407125918   -1.88192771640360   -0.93342954533931
22
 energy: -36.989172969431 gnorm: 0.011471852354 xtb: 6.2.3 (830e466)
O         0.76274119856512    2.44473523379178   -1.52707574119454
C         0.88984643505885    1.45597534455511   -0.84437709402325
C         1.78664370479955    1.44774772302706    0.32678328192714
C         2.00512296866938    0.36886633147701    1.07984594168067
C         0.13380949305547    0.19976615012547   -1.14839189520195
C        -1.41852141525676    0.40360245273344   -0.89613468651073
N        -1.91203248204381   -0.95814749327912   -0.81885901716515
C        -1.03170216564594   -1.37625393528517    0.25776093838068
C        -1.31072698101035   -0.28697786425146    1.25996390628658
C        -1.54401331242184    0.80869255126480    0.55025725350797
C         0.41371356264474   -1.05333672088538   -0.31227510387968
C         1.41541890049629   -0.95882570860304    0.80310789145340
O         1.72190086744349   -1.93006379992258    1.46218367354022
H         2.27031645756527    2.39246820307600    0.54402152147799
H         2.67283664963625    0.40638397481392    1.93665812429732
H         0.26186476165515   -0.00628671346540   -2.21495838262548
H        -1.90570909425936    1.03527098693876   -1.63177498263094
H        -1.76793532923515   -1.48170816114500   -1.67870724050900
H        -1.15641229358999   -2.40325410818494    0.58530478492786
H        -1.26521348869798   -0.41882064350166    2.32192075671172
H        -1.73415994864391    1.80876995692081    0.88452736620649
H         0.71211151121558   -1.89860376020053   -0.93958129665733
22
 energy: -36.989181784417 gnorm: 0.027492778384 xtb: 6.2.3 (830e466)
O         0.85820520150192    2.40020940052136   -1.63198708048365
C         0.90993663061484    1.44164601325740   -0.87666222249109
C         1.72744684356114    1.46311406978693    0.36427590402458
C         1.94132770279821    0.38029642811470    1.11420765518474
C         0.13875046295170    0.19010638544825   -1.16179611622270
C        -1.41239520586987    0.40994524400184   -0.88613373760111
N        -1.91487248571197   -0.94834241898233   -0.80195181613170
C        -1.02486312664852   -1.37167569350828    0.26688188538316
C        -1.28291541994734   -0.27903678404026    1.26924719957254
C        -1.51688943215517    0.81794218324539    0.56097071586392
C         0.41850627440149   -1.06433940403746   -0.32531007067096
C         1.42722953120634   -0.97067440210331    0.78131543640328
O         1.80216453299293   -1.96236719571398    1.38205455944545
H         2.17471654325614    2.41804695373666    0.61317789153466
H         2.58079518172051    0.42446113323170    1.97375459043689
H         0.24238227767560   -0.02290296028299   -2.22951137198579
H        -1.89940649733021    1.04596980525818   -1.61781603178934
H        -1.78743691591032   -1.46988521048077   -1.66388755993179
H        -1.15818099615701   -2.39789706526294    0.59589898272400
H        -1.22497450364928   -0.40877832610010    2.33124789770500
H        -1.69705256534785    1.82017616723669    0.89514383776453
H         0.69742596604679   -1.91601432332682   -0.95292054873465
22
 energy: -36.989625537606 gnorm: 0.009754067311 xtb: 6.2.3 (830e466)
O         0.84254628928221    2.41108783572232   -1.60535652926502
C         0.90737647084348    1.44561046396099   -0.87247278556528
C         1.73532627322347    1.45693921455174    0.35254514440264
C         1.95073883087458    0.37281579741518    1.10067919514676
C         0.13887663765772    0.19057606444456   -1.16425184229485
C        -1.41398085017023    0.40703886670831   -0.88772394502834
N        -1.91219223754818   -0.95113036632523   -0.80273230743326
C        -1.02277115282183   -1.37445960957169    0.26306716829872
C        -1.27741096985309   -0.28131068332255    1.26676959197862
C        -1.51424438618306    0.81597146041494    0.55930236198207
C         0.42022914682140   -1.06408115308605   -0.32887429106049
C         1.41949559155906   -0.96485534862564    0.78671681669335
O         1.77302467101249   -1.94070641909902    1.40665203387454
H         2.18104320185329    2.41171262887621    0.60430841926124
H         2.58339254580047    0.41777374843346    1.98062497855318
H         0.24175160616765   -0.01751507033221   -2.23452191335814
H        -1.90194787166668    1.04301645772143   -1.61939695047187
H        -1.79215665142499   -1.47508581783954   -1.66418494526576
H        -1.15383165444488   -2.40003923504696    0.59420287258993
H        -1.21453047752381   -0.41069876242177    2.33000454945237
H        -1.69556594585035    1.81869423356772    0.89372604153965
H         0.70473093239134   -1.91135430614635   -0.95888366403009
22
 energy: -36.989742984196 gnorm: 0.014586889092 xtb: 6.2.3 (830e466)
O         0.86433047365469    2.39601056211793   -1.60828700456024
C         0.90768817242797    1.43976198931554   -0.86986334785107
C         1.70978824809288    1.45750185504831    0.36952280571190
C         1.93421112371707    0.36965836980846    1.11022536444625
C         0.13908071274146    0.18715498271545   -1.16863016889953
C        -1.41400116903291    0.40475691047843   -0.89232702603472
N        -1.91213786245688   -0.95116205902480   -0.79223870194319
C        -1.01972858401601   -1.36673223127904    0.27184250343285