22
 energy: -36.990267613593 gnorm: 0.000703952302 xtb: 6.2.3 (830e466)
O         0.98304903325486    2.33985126217165   -1.66589058392014
C         0.93061487857139    1.40941896867469   -0.89159601081036
C         1.60478651502555    1.45399807887905    0.41913100562907
C         1.85252996380396    0.36252591598283    1.14519445351325
C         0.14210220230422    0.16880616640296   -1.19859177394805
C        -1.39970265183307    0.41088964640117   -0.88913910889967
N        -1.91553015551990   -0.93574456669420   -0.75709537071387
C        -1.00424673584662   -1.35022459915484    0.28893479854738
C        -1.21226846255605   -0.23136552478599    1.27355694028289
C        -1.45612981894356    0.85274971116062    0.54827257310385
C         0.42297647924572   -1.08371040718070   -0.36275788483353
C         1.47237444792863   -0.99353318229893    0.70796723499550
O         1.95574983451625   -1.98435215756804    1.21115502055512
H         1.94017657099469    2.43300413381168    0.73536420540611
H         2.39864200416704    0.41357669720556    2.07774153634171
H         0.23314147338925   -0.03476849545432   -2.26930467822187
H        -1.90245621510148    1.03284722285584   -1.62310318670545
H        -1.83624827356458   -1.48628553176892   -1.60657860825989
H        -1.13878069362738   -2.36506320681310    0.64988564609547
H        -1.11789664246311   -0.33385098617509    2.33693670084626
H        -1.61187197698967    1.86523603107040    0.86583292914764
H         0.65888822324392   -1.94400517672247   -0.99571583815149
