6
 energy: -13.122755148220 gnorm: 0.022697099749 xtb: 6.2.3 (830e466)
F         0.00000000000000    0.00000000000000    0.00000000000000
Cl       -2.61503000000000   -0.12330000000000   -0.43645000000000
C        -1.84683000000000    0.01058000000000   -2.04004000000000
H        -2.36853000000000    0.78282000000000   -2.61664000000000
H        -0.79494000000000    0.28742000000000   -1.90372000000000
H        -1.92060000000000   -0.95752000000000   -2.54910000000000
6
 energy: -13.130293250602 gnorm: 0.013255306918 xtb: 6.2.3 (830e466)
F         0.19254396013993    0.03419912056548   -0.04707221376115
Cl       -2.76861925624831   -0.13609398671694   -0.51393387829812
C        -1.87224208315652    0.00845523239580   -2.03835680051571
H        -2.34281341365401    0.79373922546551   -2.63351199102306
H        -0.83215951778429    0.25236145362536   -1.76463920786313
H        -1.92263968929679   -0.95266104533520   -2.54843590853883
6
 energy: -13.138390986240 gnorm: 0.017542872319 xtb: 6.2.3 (830e466)
F         0.31816224611256    0.10193777904921   -0.26374048959838
Cl       -2.96513571236976   -0.16264692600128   -0.58784701299456
C        -1.87802281967297   -0.00020958657204   -1.99774985086567
H        -2.26008371960743    0.81338679971135   -2.62031100443015
H        -0.85391154704275    0.18888533569049   -1.54237174918762
H        -1.90693844741967   -0.94135340187774   -2.53392989292365
6
 energy: -13.142789966982 gnorm: 0.028345161176 xtb: 6.2.3 (830e466)
F         0.40579067382307    0.18249735954853   -0.53120474713907
Cl       -3.17059188956208   -0.18969623280226   -0.66805222517143
C        -1.87110782423395   -0.01370846575878   -1.93877641497648
H        -2.15526609672854    0.83665442627277   -2.57278858227062
H        -0.87147700786682    0.11574298711783   -1.32085530879994
H        -1.88327785543168   -0.93149007437810   -2.51427272164251
6
 energy: -13.144314505266 gnorm: 0.021756126447 xtb: 6.2.3 (830e466)
F         0.44735142916373    0.19939640513692   -0.51895076346983
Cl       -3.20332375384161   -0.19096924755189   -0.69828209826778
C        -1.87723616336538   -0.02118998577830   -1.92916950761920
H        -2.13623119387247    0.84088620743756   -2.54607254722301
H        -0.88977626024208    0.10331444918026   -1.33213140688697
H        -1.88671405784220   -0.93143782842457   -2.52134367653326
6
 energy: -13.145847771628 gnorm: 0.012325627702 xtb: 6.2.3 (830e466)
F         0.48276015115567    0.22678344457425   -0.56829878901240
Cl       -3.25951175312729   -0.19392541989587   -0.76223793658410
C        -1.88412303177189   -0.03261801713725   -1.89489701070783
H        -2.08370920539766    0.84818833492097   -2.49096351672894
H        -0.92661676055667    0.08143183765167   -1.32036303890708
H        -1.87472940030217   -0.92986018011379   -2.50918970805969
6
 energy: -13.146216750065 gnorm: 0.008589928905 xtb: 6.2.3 (830e466)
F         0.54600423628657    0.27504095693592   -0.63114239013313
Cl       -3.32971799536123   -0.21169021148344   -0.81552385283582
C        -1.89956868870352   -0.04266566195686   -1.87098230430417
H        -2.03124384329837    0.86766290375799   -2.46484149152302
H        -0.95370426470946    0.03618461494860   -1.25139283298648
H        -1.87769944421399   -0.92453260220223   -2.51206712821743
6
 energy: -13.146470662093 gnorm: 0.006180986067 xtb: 6.2.3 (830e466)
F         0.54070151768571    0.24936577813946   -0.65790712672370
Cl       -3.33563656740358   -0.19509488577481   -0.82775974737314
C        -1.89749676010055   -0.03757791436955   -1.86281260811659
H        -2.04002921388315    0.84961436599358   -2.46565288208241
H        -0.95827471511843    0.05696153798842   -1.23840609844893
H        -1.85519426118000   -0.92326888197711   -2.49341153725528
6
 energy: -13.146524019649 gnorm: 0.003240809621 xtb: 6.2.3 (830e466)
F         0.53618699068807    0.24847516855754   -0.67131989891508
Cl       -3.33904641436132   -0.19796821515034   -0.83469811627876
C        -1.89767383394965   -0.03671201422967   -1.85607326602946
H        -2.03518873928487    0.85108629079972   -2.46410883332670
H        -0.95851121551920    0.05794009777569   -1.23675788335431
H        -1.85169678757303   -0.92282132775294   -2.48299200209574
6
 energy: -13.146544853637 gnorm: 0.001917931205 xtb: 6.2.3 (830e466)
F         0.54276215365469    0.24401796733835   -0.68874084233856
Cl       -3.35326324302702   -0.19630222737666   -0.84377632220326
C        -1.89855795342696   -0.03613426326078   -1.84888640456506
H        -2.03242773975218    0.84951968318045   -2.46410328282750
H        -0.96019037897884    0.06261971031321   -1.22642428758083
H        -1.84425283846970   -0.92372087019457   -2.47401886048484
6
 energy: -13.146553405614 gnorm: 0.000795834744 xtb: 6.2.3 (830e466)
F         0.54401334346118    0.23836223706097   -0.68840386457171
Cl       -3.35267940301251   -0.19505927359244   -0.84666296688189
C        -1.89954651563349   -0.03470229487085   -1.84826768907849
H        -2.03706121523454    0.84881580196585   -2.46810665669282
H        -0.95825097447436    0.06829042516283   -1.22554163045651
H        -1.84240523510628   -0.92570689572637   -2.46896719231863
6
 energy: -13.146556243419 gnorm: 0.000296247976 xtb: 6.2.3 (830e466)
F         0.54470891457744    0.23558700948302   -0.68260507049656
Cl       -3.35197675413175   -0.19474530505911   -0.84446286995243
C        -1.89896495835762   -0.03382149988268   -1.84914696573758
H        -2.04069908500437    0.84743700674884   -2.47072399993119
H        -0.95570502174292    0.07141674393455   -1.23022731278714
H        -1.84329309534079   -0.92587395522462   -2.46878378109514
