      -----------------------------------------------------------      
     |                   =====================                   |     
     |                           x T B                           |     
     |                   =====================                   |     
     |                         S. Grimme                         |     
     |          Mulliken Center for Theoretical Chemistry        |     
     |                    University of Bonn                     |     
      -----------------------------------------------------------      

   * xtb version 6.2.3 (830e466) compiled by 'ehlert@majestix' on 2020-03-16

   xtb is free software: you can redistribute it and/or modify it under
   the terms of the GNU Lesser General Public License as published by
   the Free Software Foundation, either version 3 of the License, or
   (at your option) any later version.
   
   xtb is distributed in the hope that it will be useful,
   but WITHOUT ANY WARRANTY; without even the implied warranty of
   MERCHANTABILITY or FITNESS FOR A PARTICULAR PURPOSE.  See the
   GNU Lesser General Public License for more details.
   
   Cite this work as:
   * S. Grimme, C. Bannwarth, P. Shushkov, J. Chem. Theory Comput., 2017,
     13, 1989-2009. DOI: 10.1021/acs.jctc.7b00118
   * C. Bannwarth, S. Ehlert and S. Grimme., J. Chem. Theory Comput., 2019,
     15, 1652-1671. DOI: 10.1021/acs.jctc.8b01176
   * P. Pracht, E. Caldeweyher, S. Ehlert, S. Grimme, ChemRxiv, 2019, preprint.
     DOI: 10.26434/chemrxiv.8326202.v1
   
   for DFT-D4:
   * E. Caldeweyher, C. Bannwarth and S. Grimme, J. Chem. Phys., 2017,
     147, 034112. DOI: 10.1063/1.4993215
   * E. Caldeweyher, S. Ehlert, A. Hansen, H. Neugebauer, S. Spicher,
     C. Bannwarth and S. Grimme, J. Chem. Phys., 2019, 150, 154122.
     DOI: 10.1063/1.5090222
   
   for sTDA-xTB:
   * S. Grimme and C. Bannwarth, J. Chem. Phys., 2016, 145, 054103.
     DOI: 10.1063/1.4959605
   
   in the mass-spec context:
   * V. Asgeirsson, C. Bauer and S. Grimme, Chem. Sci., 2017, 8, 4879.
     DOI: 10.1039/c7sc00601b
   
   for metadynamics refer to:
   * S. Grimme, J. Chem. Theory Comput., 2019, 155, 2847-2862
     DOI: 10.1021/acs.jctc.9b00143
   
   with help from (in alphabetical order)
   C. Bannwarth, F. Bohle, G. Brandenburg, E. Caldeweyher, M. Checinski,
   S. Dohm, S. Ehlert, S. Ehrlich, F. März, H. Neugebauer, J. Pisarek,
   P. Pracht, P. Shushkov, and S. Spicher.
   
 * started run on 2020/08/20 at 17:46:32.253     

           -------------------------------------------------
          |                Calculation Setup                |
           -------------------------------------------------

          program call               : /u/fd/ball4935/opt/bin/xtb 10_8_xtb.xyz --chrg -1 --grad --gbsa Water
          hostname                   : comp0810
          coordinate file            : 10_8_xtb.xyz
          omp threads                :                     1
          number of atoms            :                     6
          number of electrons        :                    22
          charge                     :                    -1
          spin                       :                   0.0
          first test random number   :      0.97802071139764


molecular fragmentation (1/2 indicates fragments):
121111
# atoms in fragment 1/2:     5     1
 fragment masses (1/2) :       34.03       35.45
CMA distance (Bohr)    :   7.676
constraining FC (au)   :  0.0500
########################################################################
[WARNING] Please study the warnings concerning your input carefully
-2- prog_main: XTBPATH is not set, using XTBHOME instead
-1- prog_main: XTBHOME is not set, using HOME instead
########################################################################
           ------------------------------------------------- 
          |                 G F N 2 - x T B                 |
          | Geometry, Frequencies, Noncovalent interactions |
          |            JCTC 2019 parametrisation            |
           ------------------------------------------------- 
             k(s)              :                1.8500
             k(p)              :                2.2300
             k(d)              :                2.2300
             k(f)              :                2.0000
             kEN (H0ij)        :               -2.0000
             D4 a1             :                0.5200
             D4 a2             :                5.0000
             D4 s6             :                1.0000
             D4 s8             :                2.7000
             D4 s9             :                5.0000
             alphaj            :                2.0000

  Z AO/shell   Hii/eV     exponent
  1     Wed Apr 25 08:07:45 CEST 2018   EN: 2.200 GM2: 0.406  GM3: 0.0800  RAES: 1.40
     1s    -10.707211    1.230000
  6     Wed Apr 25 08:07:45 CEST 2018   EN: 2.550 GM2: 0.538  GM3: 0.1500  RAES: 3.00
     2s    -13.970922    2.096432
     2p    -10.063292    1.800000
  9     Mon Apr 23 13:58:50 CEST 2018   EN: 3.980 GM2: 0.532  GM3: 0.1426  RAES: 2.40
     2s    -23.458179    2.416361
     2p    -15.746583    2.308399
 17     Mon Apr 23 14:09:22 CEST 2018   EN: 3.160 GM2: 0.249  GM3: 0.1495  RAES: 2.50
     3s    -29.278781    2.485265
     3p    -12.673758    2.199650
     3d     -0.240338    2.476089

 Solvent             : Water
 Using internal parameter file: .param_gbsa2_Water
 Gsolv ref. state (COSMO-RS): gsolv [1 M gas/solution]
 temperature (mdtemp)       :    298.150000000000     
 dielectric constant        :    80.2000000000000     
 rho                        :    1.00000000000000     
 mass                       :    18.0000000000000     
 surface tension            :    15.5689454083859     
 probe radius               :   0.975313790000000     
 Gshift (Eh)                :   1.857443126794793E-003
 c1                         :    1.55243817000000     
 soset                      :   0.130326360000000     
 HB correction              :  T
           ------------------------------------------------- 
          |        Self-Consistent Charge Iterations        |
           ------------------------------------------------- 

          ...................................................
          :                      SETUP                      :
          :.................................................:
          :  # basis functions                  21          :
          :  # atomic orbitals                  20          :
          :  # shells                           10          :
          :  # electrons                        22          :
          :  max. iterations                   250          :
          :  Hamiltonian                  GFN2-xTB          :
          :  restarted?                      false          :
          :  GBSA solvation                   true          :
          :  PC potential                    false          :
          :  electronic temp.          300.0000000     K    :
          :  accuracy                    1.0000000          :
          :  -> integral cutoff          0.2500000E+02      :
          :  -> integral neglect         0.1000000E-07      :
          :  -> SCF convergence          0.1000000E-05 Eh   :
          :  -> wf. convergence          0.1000000E-03 e    :
          :  Broyden damping             0.4000000          :
          ...................................................

 iter      E             dE          RMSdq      gap      omega  full diag
   1    -13.2804422 -0.132804E+02  0.564E+00   12.47       0.0  T
   2    -13.3426775 -0.622353E-01  0.286E+00   12.15       1.0  T
   3    -13.3434662 -0.788681E-03  0.157E+00   11.83       1.0  T
   4    -13.3436406 -0.174420E-03  0.169E-01   11.59       1.0  T
   5    -13.3436702 -0.296208E-04  0.708E-02   11.68       1.0  T
   6    -13.3436738 -0.358836E-05  0.535E-02   11.68       1.0  T
   7    -13.3436793 -0.550648E-05  0.146E-02   11.69       2.8  T
   8    -13.3436794 -0.371186E-07  0.111E-03   11.69      36.9  T
   9    -13.3436794 -0.269756E-08  0.445E-04   11.70      91.7  T
  10    -13.3436794 -0.408349E-10  0.572E-05   11.69     714.3  T

   *** convergence criteria satisfied after 10 iterations ***

         #    Occupation            Energy/Eh            Energy/eV
      -------------------------------------------------------------
         1        2.0000           -0.9855131             -26.8172
       ...           ...                  ...                  ...
         5        2.0000           -0.5361809             -14.5902
         6        2.0000           -0.5344153             -14.5422
         7        2.0000           -0.4577895             -12.4571
         8        2.0000           -0.4577056             -12.4548
         9        2.0000           -0.3892702             -10.5926
        10        2.0000           -0.3884382             -10.5699
        11        2.0000           -0.3884381             -10.5699 (HOMO)
        12                          0.0413443               1.1250 (LUMO)
        13                          0.0996545               2.7117
        14                          0.1421591               3.8683
        15                          0.1421854               3.8691
        16                          0.1428926               3.8883
       ...                                ...                  ...
        20                          0.1784268               4.8552
      -------------------------------------------------------------
                  HL-Gap            0.4297824 Eh           11.6950 eV
             Fermi-level           -0.1735469 Eh           -4.7225 eV

 SCC (total)                   0 d,  0 h,  0 min,  0.006 sec
 SCC setup                      ...        0 min,  0.000 sec (  5.101%)
 Dispersion                     ...        0 min,  0.000 sec (  0.548%)
 integral evaluation            ...        0 min,  0.001 sec ( 16.402%)
 zeroth order Hamiltonian       ...        0 min,  0.000 sec (  0.659%)
 iterations                     ...        0 min,  0.003 sec ( 55.061%)
 molecular gradient             ...        0 min,  0.001 sec ( 18.922%)
 printout                       ...        0 min,  0.000 sec (  2.459%)

         :::::::::::::::::::::::::::::::::::::::::::::::::::::
         ::                     SUMMARY                     ::
         :::::::::::::::::::::::::::::::::::::::::::::::::::::
         :: total energy             -13.290828815954 Eh    ::
         :: total w/o Gsasa/hb       -13.291037093524 Eh    ::
         :: gradient norm              0.025486690802 Eh/a0 ::
         :: HOMO-LUMO gap             11.694974735914 eV    ::
         ::.................................................::
         :: SCC energy               -13.341557885011 Eh    ::
         :: -> isotropic ES            0.166522883620 Eh    ::
         :: -> anisotropic ES         -0.000659243902 Eh    ::
         :: -> anisotropic XC         -0.001216185776 Eh    ::
         :: -> dispersion             -0.001760267308 Eh    ::
         :: -> Gsolv                  -0.100895572619 Eh    ::
         ::    -> Gborn               -0.101103850189 Eh    ::
         ::    -> Gsasa                0.000264030407 Eh    ::
         ::    -> Ghb                 -0.001913195963 Eh    ::
         ::    -> Gshift               0.001857443127 Eh    ::
         :: repulsion energy           0.050729242039 Eh    ::
         :: add. restraining           0.000000000000 Eh    ::
         :::::::::::::::::::::::::::::::::::::::::::::::::::::

           -------------------------------------------------
          |                Property Printout                |
           -------------------------------------------------

    * Orbital Energies and Occupations

         #    Occupation            Energy/Eh            Energy/eV
      -------------------------------------------------------------
         1        2.0000           -0.9855131             -26.8172
         2        2.0000           -0.8138569             -22.1462
         3        2.0000           -0.6088010             -16.5663
         4        2.0000           -0.5362434             -14.5919
         5        2.0000           -0.5361809             -14.5902
         6        2.0000           -0.5344153             -14.5422
         7        2.0000           -0.4577895             -12.4571
         8        2.0000           -0.4577056             -12.4548
         9        2.0000           -0.3892702             -10.5926
        10        2.0000           -0.3884382             -10.5699
        11        2.0000           -0.3884381             -10.5699 (HOMO)
        12                          0.0413443               1.1250 (LUMO)
        13                          0.0996545               2.7117
        14                          0.1421591               3.8683
        15                          0.1421854               3.8691
        16                          0.1428926               3.8883
        17                          0.1430440               3.8924
        18                          0.1430445               3.8924
        19                          0.1772939               4.8244
        20                          0.1784268               4.8552
      -------------------------------------------------------------
                  HL-Gap            0.4297824 Eh           11.6950 eV
             Fermi-level           -0.1735469 Eh           -4.7225 eV

     #   Z        covCN         q      C6AA      α(0)
     1   9 F      0.782    -0.279    12.081     4.106
     2  17 Cl     0.000    -0.999   126.974    17.149
     3   6 C      3.547     0.075    20.294     6.590
     4   1 H      0.922     0.068     2.111     2.272
     5   1 H      0.922     0.067     2.114     2.274
     6   1 H      0.922     0.068     2.114     2.274

 Mol. C6AA /au·bohr⁶  :        552.489646
 Mol. C8AA /au·bohr⁸  :      15903.331743
 Mol. α(0) /au        :         34.665248


Wiberg/Mayer (AO) data.
largest (>0.10) Wiberg bond orders for each atom
          total WBO             WBO to atom ...
     1  F   0.973        C    3 0.930
     2  Cl  0.002
     3  C   3.875        H    6 0.981    H    5 0.981    H    4 0.981    F    1 0.930
     4  H   0.995        C    3 0.981
     5  H   0.995        C    3 0.981
     6  H   0.995        C    3 0.981

molecular dipole:
                 x           y           z       tot (Debye)
 q only:       -3.374      -0.085       0.021
   full:       -3.217      -0.082       0.019       8.179
molecular quadrupole (traceless):
                xx          xy          yy          xz          yz          zz
 q only:      -23.606      -0.826      11.796       0.357       0.009      11.811
  q+dip:      -26.137      -0.905      13.061       0.417       0.012      13.076
   full:      -25.344      -0.880      12.664       0.397       0.011      12.680


           -------------------------------------------------
          | TOTAL ENERGY              -13.290828815954 Eh   |
          | GRADIENT NORM               0.025486690802 Eh/α |
          | HOMO-LUMO GAP              11.694974735914 eV   |
           -------------------------------------------------

------------------------------------------------------------------------
 * finished run on 2020/08/20 at 17:46:32.313     
------------------------------------------------------------------------
 total:
 * wall-time:     0 d,  0 h,  0 min,  0.059 sec
 *  cpu-time:     0 d,  0 h,  0 min,  0.018 sec
 * ratio c/w:     0.301 speedup
 SCF:
 * wall-time:     0 d,  0 h,  0 min,  0.006 sec
 *  cpu-time:     0 d,  0 h,  0 min,  0.006 sec
 * ratio c/w:     0.997 speedup

