      -----------------------------------------------------------      
     |                   =====================                   |     
     |                           x T B                           |     
     |                   =====================                   |     
     |                         S. Grimme                         |     
     |          Mulliken Center for Theoretical Chemistry        |     
     |                    University of Bonn                     |     
      -----------------------------------------------------------      

   * xtb version 6.2.3 (830e466) compiled by 'ehlert@majestix' on 2020-03-16

   xtb is free software: you can redistribute it and/or modify it under
   the terms of the GNU Lesser General Public License as published by
   the Free Software Foundation, either version 3 of the License, or
   (at your option) any later version.
   
   xtb is distributed in the hope that it will be useful,
   but WITHOUT ANY WARRANTY; without even the implied warranty of
   MERCHANTABILITY or FITNESS FOR A PARTICULAR PURPOSE.  See the
   GNU Lesser General Public License for more details.
   
   Cite this work as:
   * S. Grimme, C. Bannwarth, P. Shushkov, J. Chem. Theory Comput., 2017,
     13, 1989-2009. DOI: 10.1021/acs.jctc.7b00118
   * C. Bannwarth, S. Ehlert and S. Grimme., J. Chem. Theory Comput., 2019,
     15, 1652-1671. DOI: 10.1021/acs.jctc.8b01176
   * P. Pracht, E. Caldeweyher, S. Ehlert, S. Grimme, ChemRxiv, 2019, preprint.
     DOI: 10.26434/chemrxiv.8326202.v1
   
   for DFT-D4:
   * E. Caldeweyher, C. Bannwarth and S. Grimme, J. Chem. Phys., 2017,
     147, 034112. DOI: 10.1063/1.4993215
   * E. Caldeweyher, S. Ehlert, A. Hansen, H. Neugebauer, S. Spicher,
     C. Bannwarth and S. Grimme, J. Chem. Phys., 2019, 150, 154122.
     DOI: 10.1063/1.5090222
   
   for sTDA-xTB:
   * S. Grimme and C. Bannwarth, J. Chem. Phys., 2016, 145, 054103.
     DOI: 10.1063/1.4959605
   
   in the mass-spec context:
   * V. Asgeirsson, C. Bauer and S. Grimme, Chem. Sci., 2017, 8, 4879.
     DOI: 10.1039/c7sc00601b
   
   for metadynamics refer to:
   * S. Grimme, J. Chem. Theory Comput., 2019, 155, 2847-2862
     DOI: 10.1021/acs.jctc.9b00143
   
   with help from (in alphabetical order)
   C. Bannwarth, F. Bohle, G. Brandenburg, E. Caldeweyher, M. Checinski,
   S. Dohm, S. Ehlert, S. Ehrlich, F. März, H. Neugebauer, J. Pisarek,
   P. Pracht, P. Shushkov, and S. Spicher.
   
 * started run on 2020/08/20 at 17:46:29.538     

           -------------------------------------------------
          |                Calculation Setup                |
           -------------------------------------------------

          program call               : /u/fd/ball4935/opt/bin/xtb 7_1_xtb.xyz --chrg -1 --grad --gbsa Water
          hostname                   : comp0810
          coordinate file            : 7_1_xtb.xyz
          omp threads                :                     1
          number of atoms            :                     6
          number of electrons        :                    22
          charge                     :                    -1
          spin                       :                   0.0
          first test random number   :      0.98798940190072


molecular fragmentation (1/2 indicates fragments):
122222
# atoms in fragment 1/2:     1     5
 fragment masses (1/2) :       19.00       50.49
CMA distance (Bohr)    :   7.989
constraining FC (au)   :  0.0500
########################################################################
[WARNING] Please study the warnings concerning your input carefully
-2- prog_main: XTBPATH is not set, using XTBHOME instead
-1- prog_main: XTBHOME is not set, using HOME instead
########################################################################
           ------------------------------------------------- 
          |                 G F N 2 - x T B                 |
          | Geometry, Frequencies, Noncovalent interactions |
          |            JCTC 2019 parametrisation            |
           ------------------------------------------------- 
             k(s)              :                1.8500
             k(p)              :                2.2300
             k(d)              :                2.2300
             k(f)              :                2.0000
             kEN (H0ij)        :               -2.0000
             D4 a1             :                0.5200
             D4 a2             :                5.0000
             D4 s6             :                1.0000
             D4 s8             :                2.7000
             D4 s9             :                5.0000
             alphaj            :                2.0000

  Z AO/shell   Hii/eV     exponent
  1     Wed Apr 25 08:07:45 CEST 2018   EN: 2.200 GM2: 0.406  GM3: 0.0800  RAES: 1.40
     1s    -10.707211    1.230000
  6     Wed Apr 25 08:07:45 CEST 2018   EN: 2.550 GM2: 0.538  GM3: 0.1500  RAES: 3.00
     2s    -13.970922    2.096432
     2p    -10.063292    1.800000
  9     Mon Apr 23 13:58:50 CEST 2018   EN: 3.980 GM2: 0.532  GM3: 0.1426  RAES: 2.40
     2s    -23.458179    2.416361
     2p    -15.746583    2.308399
 17     Mon Apr 23 14:09:22 CEST 2018   EN: 3.160 GM2: 0.249  GM3: 0.1495  RAES: 2.50
     3s    -29.278781    2.485265
     3p    -12.673758    2.199650
     3d     -0.240338    2.476089

 Solvent             : Water
 Using internal parameter file: .param_gbsa2_Water
 Gsolv ref. state (COSMO-RS): gsolv [1 M gas/solution]
 temperature (mdtemp)       :    298.150000000000     
 dielectric constant        :    80.2000000000000     
 rho                        :    1.00000000000000     
 mass                       :    18.0000000000000     
 surface tension            :    15.5689454083859     
 probe radius               :   0.975313790000000     
 Gshift (Eh)                :   1.857443126794793E-003
 c1                         :    1.55243817000000     
 soset                      :   0.130326360000000     
 HB correction              :  T
           ------------------------------------------------- 
          |        Self-Consistent Charge Iterations        |
           ------------------------------------------------- 

          ...................................................
          :                      SETUP                      :
          :.................................................:
          :  # basis functions                  21          :
          :  # atomic orbitals                  20          :
          :  # shells                           10          :
          :  # electrons                        22          :
          :  max. iterations                   250          :
          :  Hamiltonian                  GFN2-xTB          :
          :  restarted?                      false          :
          :  GBSA solvation                   true          :
          :  PC potential                    false          :
          :  electronic temp.          300.0000000     K    :
          :  accuracy                    1.0000000          :
          :  -> integral cutoff          0.2500000E+02      :
          :  -> integral neglect         0.1000000E-07      :
          :  -> SCF convergence          0.1000000E-05 Eh   :
          :  -> wf. convergence          0.1000000E-03 e    :
          :  Broyden damping             0.4000000          :
          ...................................................

 iter      E             dE          RMSdq      gap      omega  full diag
   1    -13.1523419 -0.131523E+02  0.781E+00    4.08       0.0  T
   2    -13.1764932 -0.241514E-01  0.423E+00    1.36       1.0  T
   3    -13.2475649 -0.710717E-01  0.388E+00    2.04       1.0  T
   4    -13.2733085 -0.257436E-01  0.884E-01    1.27       1.0  T
   5    -13.2722691  0.103941E-02  0.818E-01    1.67       1.0  T
   6    -13.2740705 -0.180137E-02  0.202E-01    1.54       1.0  T
   7    -13.2741631 -0.925943E-04  0.736E-02    1.50       1.0  T
   8    -13.2741509  0.121787E-04  0.872E-02    1.50       1.0  T
   9    -13.2741695 -0.186436E-04  0.582E-03    1.53       7.0  T
  10    -13.2741696 -0.847439E-07  0.175E-03    1.53      23.3  T
  11    -13.2741696 -0.531351E-08  0.625E-04    1.53      65.4  T
  12    -13.2741696 -0.125481E-08  0.728E-05    1.53     561.1  T

   *** convergence criteria satisfied after 12 iterations ***

         #    Occupation            Energy/Eh            Energy/eV
      -------------------------------------------------------------
         1        2.0000           -0.9924932             -27.0071
       ...           ...                  ...                  ...
         5        2.0000           -0.5078325             -13.8188
         6        2.0000           -0.4566817             -12.4269
         7        2.0000           -0.4313696             -11.7382
         8        2.0000           -0.4313640             -11.7380
         9        2.0000           -0.3927512             -10.6873
        10        2.0000           -0.3897246             -10.6049
        11        2.0000           -0.3897236             -10.6049 (HOMO)
        12                         -0.3336074              -9.0779 (LUMO)
        13                          0.0967312               2.6322
        14                          0.1299833               3.5370
        15                          0.1299901               3.5372
        16                          0.1301384               3.5412
       ...                                ...                  ...
        20                          0.2344116               6.3787
      -------------------------------------------------------------
                  HL-Gap            0.0561162 Eh            1.5270 eV
             Fermi-level           -0.3613381 Eh           -9.8325 eV

 SCC (total)                   0 d,  0 h,  0 min,  0.006 sec
 SCC setup                      ...        0 min,  0.000 sec (  5.014%)
 Dispersion                     ...        0 min,  0.000 sec (  0.532%)
 integral evaluation            ...        0 min,  0.001 sec ( 15.181%)
 zeroth order Hamiltonian       ...        0 min,  0.000 sec (  0.568%)
 iterations                     ...        0 min,  0.004 sec ( 59.221%)
 molecular gradient             ...        0 min,  0.001 sec ( 16.945%)
 printout                       ...        0 min,  0.000 sec (  1.832%)

         :::::::::::::::::::::::::::::::::::::::::::::::::::::
         ::                     SUMMARY                     ::
         :::::::::::::::::::::::::::::::::::::::::::::::::::::
         :: total energy             -13.218379029833 Eh    ::
         :: total w/o Gsasa/hb       -13.217181024265 Eh    ::
         :: gradient norm              0.069831310278 Eh/a0 ::
         :: HOMO-LUMO gap              1.526999164832 eV    ::
         ::.................................................::
         :: SCC energy               -13.271738454541 Eh    ::
         :: -> isotropic ES            0.185241853246 Eh    ::
         :: -> anisotropic ES         -0.004688474395 Eh    ::
         :: -> anisotropic XC          0.006212182317 Eh    ::
         :: -> dispersion             -0.001729154734 Eh    ::
         :: -> Gsolv                  -0.098685069341 Eh    ::
         ::    -> Gborn               -0.097487063774 Eh    ::
         ::    -> Gsasa                0.000573734602 Eh    ::
         ::    -> Ghb                 -0.003629183296 Eh    ::
         ::    -> Gshift               0.001857443127 Eh    ::
         :: repulsion energy           0.053360254168 Eh    ::
         :: add. restraining           0.000000000000 Eh    ::
         :::::::::::::::::::::::::::::::::::::::::::::::::::::

           -------------------------------------------------
          |                Property Printout                |
           -------------------------------------------------

    * Orbital Energies and Occupations

         #    Occupation            Energy/Eh            Energy/eV
      -------------------------------------------------------------
         1        2.0000           -0.9924932             -27.0071
         2        2.0000           -0.7217089             -19.6387
         3        2.0000           -0.6052094             -16.4686
         4        2.0000           -0.5079781             -13.8228
         5        2.0000           -0.5078325             -13.8188
         6        2.0000           -0.4566817             -12.4269
         7        2.0000           -0.4313696             -11.7382
         8        2.0000           -0.4313640             -11.7380
         9        2.0000           -0.3927512             -10.6873
        10        2.0000           -0.3897246             -10.6049
        11        2.0000           -0.3897236             -10.6049 (HOMO)
        12                         -0.3336074              -9.0779 (LUMO)
        13                          0.0967312               2.6322
        14                          0.1299833               3.5370
        15                          0.1299901               3.5372
        16                          0.1301384               3.5412
        17                          0.1311884               3.5698
        18                          0.1311888               3.5698
        19                          0.2316282               6.3029
        20                          0.2344116               6.3787
      -------------------------------------------------------------
                  HL-Gap            0.0561162 Eh            1.5270 eV
             Fermi-level           -0.3613381 Eh           -9.8325 eV

     #   Z        covCN         q      C6AA      α(0)
     1   9 F      0.088    -0.502    15.355     4.565
     2  17 Cl     0.000    -0.928   124.087    16.953
     3   6 C      2.864     0.009    27.812     8.644
     4   1 H      0.925     0.141     1.457     1.888
     5   1 H      0.925     0.140     1.459     1.889
     6   1 H      0.925     0.141     1.457     1.888

 Mol. C6AA /au·bohr⁶  :        567.335446
 Mol. C8AA /au·bohr⁸  :      16523.036424
 Mol. α(0) /au        :         35.826784


Wiberg/Mayer (AO) data.
largest (>0.10) Wiberg bond orders for each atom
          total WBO             WBO to atom ...
     1  F   0.748        C    3 0.708
     2  Cl  0.138        C    3 0.101
     3  C   3.741        H    5 0.977    H    6 0.977    H    4 0.977    F    1 0.708    Cl   2 0.101
     4  H   0.980        C    3 0.977
     5  H   0.980        C    3 0.977
     6  H   0.980        C    3 0.977

molecular dipole:
                 x           y           z       tot (Debye)
 q only:       -1.697      -0.050       0.001
   full:       -1.490      -0.045      -0.001       3.789
molecular quadrupole (traceless):
                xx          xy          yy          xz          yz          zz
 q only:      -31.662      -1.058      15.823       0.575       0.012      15.840
  q+dip:      -32.115      -1.068      16.048       0.592       0.010      16.066
   full:      -31.275      -1.041      15.629       0.576       0.011      15.646


           -------------------------------------------------
          | TOTAL ENERGY              -13.218379029833 Eh   |
          | GRADIENT NORM               0.069831310278 Eh/α |
          | HOMO-LUMO GAP               1.526999164832 eV   |
           -------------------------------------------------

------------------------------------------------------------------------
 * finished run on 2020/08/20 at 17:46:29.629     
------------------------------------------------------------------------
 total:
 * wall-time:     0 d,  0 h,  0 min,  0.091 sec
 *  cpu-time:     0 d,  0 h,  0 min,  0.016 sec
 * ratio c/w:     0.181 speedup
 SCF:
 * wall-time:     0 d,  0 h,  0 min,  0.006 sec
 *  cpu-time:     0 d,  0 h,  0 min,  0.006 sec
 * ratio c/w:     0.997 speedup

