      -----------------------------------------------------------      
     |                   =====================                   |     
     |                           x T B                           |     
     |                   =====================                   |     
     |                         S. Grimme                         |     
     |          Mulliken Center for Theoretical Chemistry        |     
     |                    University of Bonn                     |     
      -----------------------------------------------------------      

   * xtb version 6.2.3 (830e466) compiled by 'ehlert@majestix' on 2020-03-16

   xtb is free software: you can redistribute it and/or modify it under
   the terms of the GNU Lesser General Public License as published by
   the Free Software Foundation, either version 3 of the License, or
   (at your option) any later version.
   
   xtb is distributed in the hope that it will be useful,
   but WITHOUT ANY WARRANTY; without even the implied warranty of
   MERCHANTABILITY or FITNESS FOR A PARTICULAR PURPOSE.  See the
   GNU Lesser General Public License for more details.
   
   Cite this work as:
   * S. Grimme, C. Bannwarth, P. Shushkov, J. Chem. Theory Comput., 2017,
     13, 1989-2009. DOI: 10.1021/acs.jctc.7b00118
   * C. Bannwarth, S. Ehlert and S. Grimme., J. Chem. Theory Comput., 2019,
     15, 1652-1671. DOI: 10.1021/acs.jctc.8b01176
   * P. Pracht, E. Caldeweyher, S. Ehlert, S. Grimme, ChemRxiv, 2019, preprint.
     DOI: 10.26434/chemrxiv.8326202.v1
   
   for DFT-D4:
   * E. Caldeweyher, C. Bannwarth and S. Grimme, J. Chem. Phys., 2017,
     147, 034112. DOI: 10.1063/1.4993215
   * E. Caldeweyher, S. Ehlert, A. Hansen, H. Neugebauer, S. Spicher,
     C. Bannwarth and S. Grimme, J. Chem. Phys., 2019, 150, 154122.
     DOI: 10.1063/1.5090222
   
   for sTDA-xTB:
   * S. Grimme and C. Bannwarth, J. Chem. Phys., 2016, 145, 054103.
     DOI: 10.1063/1.4959605
   
   in the mass-spec context:
   * V. Asgeirsson, C. Bauer and S. Grimme, Chem. Sci., 2017, 8, 4879.
     DOI: 10.1039/c7sc00601b
   
   for metadynamics refer to:
   * S. Grimme, J. Chem. Theory Comput., 2019, 155, 2847-2862
     DOI: 10.1021/acs.jctc.9b00143
   
   with help from (in alphabetical order)
   C. Bannwarth, F. Bohle, G. Brandenburg, E. Caldeweyher, M. Checinski,
   S. Dohm, S. Ehlert, S. Ehrlich, F. März, H. Neugebauer, J. Pisarek,
   P. Pracht, P. Shushkov, and S. Spicher.
   
 * started run on 2020/08/20 at 17:46:30.358     

           -------------------------------------------------
          |                Calculation Setup                |
           -------------------------------------------------

          program call               : /u/fd/ball4935/opt/bin/xtb 7_3_xtb.xyz --chrg -1 --grad --gbsa Water
          hostname                   : comp0810
          coordinate file            : 7_3_xtb.xyz
          omp threads                :                     1
          number of atoms            :                     6
          number of electrons        :                    22
          charge                     :                    -1
          spin                       :                   0.0
          first test random number   :      0.56280216846530


molecular fragmentation (1/2 indicates fragments):
122222
# atoms in fragment 1/2:     1     5
 fragment masses (1/2) :       19.00       50.49
CMA distance (Bohr)    :   7.456
constraining FC (au)   :  0.0500
########################################################################
[WARNING] Please study the warnings concerning your input carefully
-2- prog_main: XTBPATH is not set, using XTBHOME instead
-1- prog_main: XTBHOME is not set, using HOME instead
########################################################################
           ------------------------------------------------- 
          |                 G F N 2 - x T B                 |
          | Geometry, Frequencies, Noncovalent interactions |
          |            JCTC 2019 parametrisation            |
           ------------------------------------------------- 
             k(s)              :                1.8500
             k(p)              :                2.2300
             k(d)              :                2.2300
             k(f)              :                2.0000
             kEN (H0ij)        :               -2.0000
             D4 a1             :                0.5200
             D4 a2             :                5.0000
             D4 s6             :                1.0000
             D4 s8             :                2.7000
             D4 s9             :                5.0000
             alphaj            :                2.0000

  Z AO/shell   Hii/eV     exponent
  1     Wed Apr 25 08:07:45 CEST 2018   EN: 2.200 GM2: 0.406  GM3: 0.0800  RAES: 1.40
     1s    -10.707211    1.230000
  6     Wed Apr 25 08:07:45 CEST 2018   EN: 2.550 GM2: 0.538  GM3: 0.1500  RAES: 3.00
     2s    -13.970922    2.096432
     2p    -10.063292    1.800000
  9     Mon Apr 23 13:58:50 CEST 2018   EN: 3.980 GM2: 0.532  GM3: 0.1426  RAES: 2.40
     2s    -23.458179    2.416361
     2p    -15.746583    2.308399
 17     Mon Apr 23 14:09:22 CEST 2018   EN: 3.160 GM2: 0.249  GM3: 0.1495  RAES: 2.50
     3s    -29.278781    2.485265
     3p    -12.673758    2.199650
     3d     -0.240338    2.476089

 Solvent             : Water
 Using internal parameter file: .param_gbsa2_Water
 Gsolv ref. state (COSMO-RS): gsolv [1 M gas/solution]
 temperature (mdtemp)       :    298.150000000000     
 dielectric constant        :    80.2000000000000     
 rho                        :    1.00000000000000     
 mass                       :    18.0000000000000     
 surface tension            :    15.5689454083859     
 probe radius               :   0.975313790000000     
 Gshift (Eh)                :   1.857443126794793E-003
 c1                         :    1.55243817000000     
 soset                      :   0.130326360000000     
 HB correction              :  T
           ------------------------------------------------- 
          |        Self-Consistent Charge Iterations        |
           ------------------------------------------------- 

          ...................................................
          :                      SETUP                      :
          :.................................................:
          :  # basis functions                  21          :
          :  # atomic orbitals                  20          :
          :  # shells                           10          :
          :  # electrons                        22          :
          :  max. iterations                   250          :
          :  Hamiltonian                  GFN2-xTB          :
          :  restarted?                      false          :
          :  GBSA solvation                   true          :
          :  PC potential                    false          :
          :  electronic temp.          300.0000000     K    :
          :  accuracy                    1.0000000          :
          :  -> integral cutoff          0.2500000E+02      :
          :  -> integral neglect         0.1000000E-07      :
          :  -> SCF convergence          0.1000000E-05 Eh   :
          :  -> wf. convergence          0.1000000E-03 e    :
          :  Broyden damping             0.4000000          :
          ...................................................

 iter      E             dE          RMSdq      gap      omega  full diag
   1    -13.1986544 -0.131987E+02  0.699E+00    5.16       0.0  T
   2    -13.2785273 -0.798729E-01  0.275E+00    2.60       1.0  T
   3    -13.2944376 -0.159103E-01  0.234E+00    2.92       1.0  T
   4    -13.2990799 -0.464228E-02  0.412E-01    2.41       1.0  T
   5    -13.2991022 -0.223137E-04  0.322E-01    2.69       1.0  T
   6    -13.2994336 -0.331430E-03  0.110E-01    2.64       1.0  T
   7    -13.2994233  0.103452E-04  0.102E-01    2.65       1.0  T
   8    -13.2994505 -0.272615E-04  0.539E-02    2.66       1.0  T
   9    -13.2994601 -0.957499E-05  0.442E-03    2.67       9.2  T
  10    -13.2994602 -0.690819E-07  0.128E-03    2.67      32.0  T
  11    -13.2994602 -0.291213E-08  0.139E-04    2.67     294.6  T
  12    -13.2994602 -0.508180E-10  0.488E-05    2.67     837.0  T

   *** convergence criteria satisfied after 12 iterations ***

         #    Occupation            Energy/Eh            Energy/eV
      -------------------------------------------------------------
         1        2.0000           -0.9897589             -26.9327
       ...           ...                  ...                  ...
         5        2.0000           -0.5061156             -13.7721
         6        2.0000           -0.4789173             -13.0320
         7        2.0000           -0.4432434             -12.0613
         8        2.0000           -0.4432350             -12.0610
         9        2.0000           -0.3916625             -10.6577
        10        2.0000           -0.3892575             -10.5922
        11        2.0000           -0.3892566             -10.5922 (HOMO)
        12                         -0.2911905              -7.9237 (LUMO)
        13                          0.1165209               3.1707
        14                          0.1341295               3.6499
        15                          0.1341343               3.6500
        16                          0.1347511               3.6668
       ...                                ...                  ...
        20                          0.2354379               6.4066
      -------------------------------------------------------------
                  HL-Gap            0.0980661 Eh            2.6685 eV
             Fermi-level           -0.3402236 Eh           -9.2580 eV

 SCC (total)                   0 d,  0 h,  0 min,  0.007 sec
 SCC setup                      ...        0 min,  0.000 sec (  4.415%)
 Dispersion                     ...        0 min,  0.000 sec (  0.460%)
 integral evaluation            ...        0 min,  0.001 sec ( 15.149%)
 zeroth order Hamiltonian       ...        0 min,  0.000 sec (  0.508%)
 iterations                     ...        0 min,  0.004 sec ( 59.344%)
 molecular gradient             ...        0 min,  0.001 sec ( 17.600%)
 printout                       ...        0 min,  0.000 sec (  1.790%)

         :::::::::::::::::::::::::::::::::::::::::::::::::::::
         ::                     SUMMARY                     ::
         :::::::::::::::::::::::::::::::::::::::::::::::::::::
         :: total energy             -13.242059967423 Eh    ::
         :: total w/o Gsasa/hb       -13.241370649828 Eh    ::
         :: gradient norm              0.083172962971 Eh/a0 ::
         :: HOMO-LUMO gap              2.668515674290 eV    ::
         ::.................................................::
         :: SCC energy               -13.297079368711 Eh    ::
         :: -> isotropic ES            0.178068460425 Eh    ::
         :: -> anisotropic ES         -0.003458804781 Eh    ::
         :: -> anisotropic XC          0.005345518342 Eh    ::
         :: -> dispersion             -0.001812573587 Eh    ::
         :: -> Gsolv                  -0.097324019478 Eh    ::
         ::    -> Gborn               -0.096634701883 Eh    ::
         ::    -> Gsasa                0.000523378476 Eh    ::
         ::    -> Ghb                 -0.003070139198 Eh    ::
         ::    -> Gshift               0.001857443127 Eh    ::
         :: repulsion energy           0.055019859554 Eh    ::
         :: add. restraining           0.000000000000 Eh    ::
         :::::::::::::::::::::::::::::::::::::::::::::::::::::

           -------------------------------------------------
          |                Property Printout                |
           -------------------------------------------------

    * Orbital Energies and Occupations

         #    Occupation            Energy/Eh            Energy/eV
      -------------------------------------------------------------
         1        2.0000           -0.9897589             -26.9327
         2        2.0000           -0.7395405             -20.1239
         3        2.0000           -0.6019131             -16.3789
         4        2.0000           -0.5061964             -13.7743
         5        2.0000           -0.5061156             -13.7721
         6        2.0000           -0.4789173             -13.0320
         7        2.0000           -0.4432434             -12.0613
         8        2.0000           -0.4432350             -12.0610
         9        2.0000           -0.3916625             -10.6577
        10        2.0000           -0.3892575             -10.5922
        11        2.0000           -0.3892566             -10.5922 (HOMO)
        12                         -0.2911905              -7.9237 (LUMO)
        13                          0.1165209               3.1707
        14                          0.1341295               3.6499
        15                          0.1341343               3.6500
        16                          0.1347511               3.6668
        17                          0.1354814               3.6866
        18                          0.1354815               3.6866
        19                          0.2347668               6.3883
        20                          0.2354379               6.4066
      -------------------------------------------------------------
                  HL-Gap            0.0980661 Eh            2.6685 eV
             Fermi-level           -0.3402236 Eh           -9.2580 eV

     #   Z        covCN         q      C6AA      α(0)
     1   9 F      0.369    -0.445    14.396     4.443
     2  17 Cl     0.002    -0.958   125.278    17.034
     3   6 C      3.148     0.025    27.183     8.529
     4   1 H      0.926     0.126     1.566     1.957
     5   1 H      0.926     0.126     1.566     1.957
     6   1 H      0.926     0.126     1.566     1.957

 Mol. C6AA /au·bohr⁶  :        567.754197
 Mol. C8AA /au·bohr⁸  :      16523.332429
 Mol. α(0) /au        :         35.876275


Wiberg/Mayer (AO) data.
largest (>0.10) Wiberg bond orders for each atom
          total WBO             WBO to atom ...
     1  F   0.804        C    3 0.772
     2  Cl  0.083
     3  C   3.772        H    5 0.981    H    6 0.981    H    4 0.980    F    1 0.772
     4  H   0.984        C    3 0.980
     5  H   0.984        C    3 0.981
     6  H   0.984        C    3 0.981

molecular dipole:
                 x           y           z       tot (Debye)
 q only:       -1.943      -0.054       0.009
   full:       -1.726      -0.050       0.006       4.389
molecular quadrupole (traceless):
                xx          xy          yy          xz          yz          zz
 q only:      -26.616      -0.897      13.301       0.480       0.010      13.315
  q+dip:      -27.645      -0.926      13.815       0.506       0.008      13.830
   full:      -26.879      -0.901      13.432       0.493       0.009      13.447


           -------------------------------------------------
          | TOTAL ENERGY              -13.242059967423 Eh   |
          | GRADIENT NORM               0.083172962971 Eh/α |
          | HOMO-LUMO GAP               2.668515674290 eV   |
           -------------------------------------------------

------------------------------------------------------------------------
 * finished run on 2020/08/20 at 17:46:30.431     
------------------------------------------------------------------------
 total:
 * wall-time:     0 d,  0 h,  0 min,  0.073 sec
 *  cpu-time:     0 d,  0 h,  0 min,  0.017 sec
 * ratio c/w:     0.230 speedup
 SCF:
 * wall-time:     0 d,  0 h,  0 min,  0.007 sec
 *  cpu-time:     0 d,  0 h,  0 min,  0.007 sec
 * ratio c/w:     0.998 speedup

