      -----------------------------------------------------------      
     |                   =====================                   |     
     |                           x T B                           |     
     |                   =====================                   |     
     |                         S. Grimme                         |     
     |          Mulliken Center for Theoretical Chemistry        |     
     |                    University of Bonn                     |     
      -----------------------------------------------------------      

   * xtb version 6.2.3 (830e466) compiled by 'ehlert@majestix' on 2020-03-16

   xtb is free software: you can redistribute it and/or modify it under
   the terms of the GNU Lesser General Public License as published by
   the Free Software Foundation, either version 3 of the License, or
   (at your option) any later version.
   
   xtb is distributed in the hope that it will be useful,
   but WITHOUT ANY WARRANTY; without even the implied warranty of
   MERCHANTABILITY or FITNESS FOR A PARTICULAR PURPOSE.  See the
   GNU Lesser General Public License for more details.
   
   Cite this work as:
   * S. Grimme, C. Bannwarth, P. Shushkov, J. Chem. Theory Comput., 2017,
     13, 1989-2009. DOI: 10.1021/acs.jctc.7b00118
   * C. Bannwarth, S. Ehlert and S. Grimme., J. Chem. Theory Comput., 2019,
     15, 1652-1671. DOI: 10.1021/acs.jctc.8b01176
   * P. Pracht, E. Caldeweyher, S. Ehlert, S. Grimme, ChemRxiv, 2019, preprint.
     DOI: 10.26434/chemrxiv.8326202.v1
   
   for DFT-D4:
   * E. Caldeweyher, C. Bannwarth and S. Grimme, J. Chem. Phys., 2017,
     147, 034112. DOI: 10.1063/1.4993215
   * E. Caldeweyher, S. Ehlert, A. Hansen, H. Neugebauer, S. Spicher,
     C. Bannwarth and S. Grimme, J. Chem. Phys., 2019, 150, 154122.
     DOI: 10.1063/1.5090222
   
   for sTDA-xTB:
   * S. Grimme and C. Bannwarth, J. Chem. Phys., 2016, 145, 054103.
     DOI: 10.1063/1.4959605
   
   in the mass-spec context:
   * V. Asgeirsson, C. Bauer and S. Grimme, Chem. Sci., 2017, 8, 4879.
     DOI: 10.1039/c7sc00601b
   
   for metadynamics refer to:
   * S. Grimme, J. Chem. Theory Comput., 2019, 155, 2847-2862
     DOI: 10.1021/acs.jctc.9b00143
   
   with help from (in alphabetical order)
   C. Bannwarth, F. Bohle, G. Brandenburg, E. Caldeweyher, M. Checinski,
   S. Dohm, S. Ehlert, S. Ehrlich, F. März, H. Neugebauer, J. Pisarek,
   P. Pracht, P. Shushkov, and S. Spicher.
   
 * started run on 2020/08/20 at 17:46:31.513     

           -------------------------------------------------
          |                Calculation Setup                |
           -------------------------------------------------

          program call               : /u/fd/ball4935/opt/bin/xtb 7_6_xtb.xyz --chrg -1 --grad --gbsa Water
          hostname                   : comp0810
          coordinate file            : 7_6_xtb.xyz
          omp threads                :                     1
          number of atoms            :                     6
          number of electrons        :                    22
          charge                     :                    -1
          spin                       :                   0.0
          first test random number   :      0.51616918056942


molecular fragmentation (1/2 indicates fragments):
121111
# atoms in fragment 1/2:     5     1
 fragment masses (1/2) :       34.03       35.45
CMA distance (Bohr)    :   6.611
constraining FC (au)   :  0.0500
########################################################################
[WARNING] Please study the warnings concerning your input carefully
-2- prog_main: XTBPATH is not set, using XTBHOME instead
-1- prog_main: XTBHOME is not set, using HOME instead
########################################################################
           ------------------------------------------------- 
          |                 G F N 2 - x T B                 |
          | Geometry, Frequencies, Noncovalent interactions |
          |            JCTC 2019 parametrisation            |
           ------------------------------------------------- 
             k(s)              :                1.8500
             k(p)              :                2.2300
             k(d)              :                2.2300
             k(f)              :                2.0000
             kEN (H0ij)        :               -2.0000
             D4 a1             :                0.5200
             D4 a2             :                5.0000
             D4 s6             :                1.0000
             D4 s8             :                2.7000
             D4 s9             :                5.0000
             alphaj            :                2.0000

  Z AO/shell   Hii/eV     exponent
  1     Wed Apr 25 08:07:45 CEST 2018   EN: 2.200 GM2: 0.406  GM3: 0.0800  RAES: 1.40
     1s    -10.707211    1.230000
  6     Wed Apr 25 08:07:45 CEST 2018   EN: 2.550 GM2: 0.538  GM3: 0.1500  RAES: 3.00
     2s    -13.970922    2.096432
     2p    -10.063292    1.800000
  9     Mon Apr 23 13:58:50 CEST 2018   EN: 3.980 GM2: 0.532  GM3: 0.1426  RAES: 2.40
     2s    -23.458179    2.416361
     2p    -15.746583    2.308399
 17     Mon Apr 23 14:09:22 CEST 2018   EN: 3.160 GM2: 0.249  GM3: 0.1495  RAES: 2.50
     3s    -29.278781    2.485265
     3p    -12.673758    2.199650
     3d     -0.240338    2.476089

 Solvent             : Water
 Using internal parameter file: .param_gbsa2_Water
 Gsolv ref. state (COSMO-RS): gsolv [1 M gas/solution]
 temperature (mdtemp)       :    298.150000000000     
 dielectric constant        :    80.2000000000000     
 rho                        :    1.00000000000000     
 mass                       :    18.0000000000000     
 surface tension            :    15.5689454083859     
 probe radius               :   0.975313790000000     
 Gshift (Eh)                :   1.857443126794793E-003
 c1                         :    1.55243817000000     
 soset                      :   0.130326360000000     
 HB correction              :  T
           ------------------------------------------------- 
          |        Self-Consistent Charge Iterations        |
           ------------------------------------------------- 

          ...................................................
          :                      SETUP                      :
          :.................................................:
          :  # basis functions                  21          :
          :  # atomic orbitals                  20          :
          :  # shells                           10          :
          :  # electrons                        22          :
          :  max. iterations                   250          :
          :  Hamiltonian                  GFN2-xTB          :
          :  restarted?                      false          :
          :  GBSA solvation                   true          :
          :  PC potential                    false          :
          :  electronic temp.          300.0000000     K    :
          :  accuracy                    1.0000000          :
          :  -> integral cutoff          0.2500000E+02      :
          :  -> integral neglect         0.1000000E-07      :
          :  -> SCF convergence          0.1000000E-05 Eh   :
          :  -> wf. convergence          0.1000000E-03 e    :
          :  Broyden damping             0.4000000          :
          ...................................................

 iter      E             dE          RMSdq      gap      omega  full diag
   1    -13.2570855 -0.132571E+02  0.625E+00    9.20       0.0  T
   2    -13.3279731 -0.708876E-01  0.282E+00    6.87       1.0  T
   3    -13.3295730 -0.159993E-02  0.162E+00    6.74       1.0  T
   4    -13.3298772 -0.304109E-03  0.206E-01    6.51       1.0  T
   5    -13.3299207 -0.435530E-04  0.931E-02    6.65       1.0  T
   6    -13.3299236 -0.288375E-05  0.757E-02    6.63       1.0  T
   7    -13.3299436 -0.199951E-04  0.228E-02    6.65       1.8  T
   8    -13.3299430  0.555447E-06  0.196E-02    6.65       2.1  T
   9    -13.3299443 -0.130607E-05  0.960E-04    6.66      42.5  T
  10    -13.3299443 -0.167012E-08  0.169E-04    6.66     242.0  T
  11    -13.3299443 -0.983782E-10  0.916E-06    6.66    4457.9  T

   *** convergence criteria satisfied after 11 iterations ***

         #    Occupation            Energy/Eh            Energy/eV
      -------------------------------------------------------------
         1        2.0000           -0.9868285             -26.8530
       ...           ...                  ...                  ...
         5        2.0000           -0.5126350             -13.9495
         6        2.0000           -0.5082547             -13.8303
         7        2.0000           -0.4531610             -12.3311
         8        2.0000           -0.4530245             -12.3274
         9        2.0000           -0.3866377             -10.5209
        10        2.0000           -0.3866315             -10.5208
        11        2.0000           -0.3863724             -10.5137 (HOMO)
        12                         -0.1416691              -3.8550 (LUMO)
        13                          0.1129329               3.0731
        14                          0.1368493               3.7239
        15                          0.1369171               3.7257
        16                          0.1385664               3.7706
       ...                                ...                  ...
        20                          0.2356104               6.4113
      -------------------------------------------------------------
                  HL-Gap            0.2447033 Eh            6.6587 eV
             Fermi-level           -0.2640208 Eh           -7.1844 eV

 SCC (total)                   0 d,  0 h,  0 min,  0.006 sec
 SCC setup                      ...        0 min,  0.000 sec (  4.613%)
 Dispersion                     ...        0 min,  0.000 sec (  0.473%)
 integral evaluation            ...        0 min,  0.001 sec ( 17.535%)
 zeroth order Hamiltonian       ...        0 min,  0.000 sec (  0.661%)
 iterations                     ...        0 min,  0.004 sec ( 55.253%)
 molecular gradient             ...        0 min,  0.001 sec ( 18.872%)
 printout                       ...        0 min,  0.000 sec (  1.829%)

         :::::::::::::::::::::::::::::::::::::::::::::::::::::
         ::                     SUMMARY                     ::
         :::::::::::::::::::::::::::::::::::::::::::::::::::::
         :: total energy             -13.273598430946 Eh    ::
         :: total w/o Gsasa/hb       -13.273667591471 Eh    ::
         :: gradient norm              0.076924607429 Eh/a0 ::
         :: HOMO-LUMO gap              6.658716607330 eV    ::
         ::.................................................::
         :: SCC energy               -13.327669535931 Eh    ::
         :: -> isotropic ES            0.167589262179 Eh    ::
         :: -> anisotropic ES         -0.001686941044 Eh    ::
         :: -> anisotropic XC          0.002489834647 Eh    ::
         :: -> dispersion             -0.001887098852 Eh    ::
         :: -> Gsolv                  -0.095269155205 Eh    ::
         ::    -> Gborn               -0.095338315730 Eh    ::
         ::    -> Gsasa                0.000417361578 Eh    ::
         ::    -> Ghb                 -0.002205644179 Eh    ::
         ::    -> Gshift               0.001857443127 Eh    ::
         :: repulsion energy           0.054071188708 Eh    ::
         :: add. restraining           0.000000000000 Eh    ::
         :::::::::::::::::::::::::::::::::::::::::::::::::::::

           -------------------------------------------------
          |                Property Printout                |
           -------------------------------------------------

    * Orbital Energies and Occupations

         #    Occupation            Energy/Eh            Energy/eV
      -------------------------------------------------------------
         1        2.0000           -0.9868285             -26.8530
         2        2.0000           -0.7735822             -21.0502
         3        2.0000           -0.5967923             -16.2395
         4        2.0000           -0.5128750             -13.9560
         5        2.0000           -0.5126350             -13.9495
         6        2.0000           -0.5082547             -13.8303
         7        2.0000           -0.4531610             -12.3311
         8        2.0000           -0.4530245             -12.3274
         9        2.0000           -0.3866377             -10.5209
        10        2.0000           -0.3866315             -10.5208
        11        2.0000           -0.3863724             -10.5137 (HOMO)
        12                         -0.1416691              -3.8550 (LUMO)
        13                          0.1129329               3.0731
        14                          0.1368493               3.7239
        15                          0.1369171               3.7257
        16                          0.1385664               3.7706
        17                          0.1385707               3.7707
        18                          0.1393984               3.7932
        19                          0.2292006               6.2369
        20                          0.2356104               6.4113
      -------------------------------------------------------------
                  HL-Gap            0.2447033 Eh            6.6587 eV
             Fermi-level           -0.2640208 Eh           -7.1844 eV

     #   Z        covCN         q      C6AA      α(0)
     1   9 F      0.746    -0.370    13.155     4.284
     2  17 Cl     0.062    -0.972   125.901    17.077
     3   6 C      3.584     0.063    20.197     6.520
     4   1 H      0.925     0.093     1.845     2.124
     5   1 H      0.925     0.093     1.851     2.128
     6   1 H      0.925     0.093     1.847     2.125

 Mol. C6AA /au·bohr⁶  :        543.453308
 Mol. C8AA /au·bohr⁸  :      15717.400369
 Mol. α(0) /au        :         34.258357


Wiberg/Mayer (AO) data.
largest (>0.10) Wiberg bond orders for each atom
          total WBO             WBO to atom ...
     1  F   0.876        C    3 0.844
     2  Cl  0.054
     3  C   3.839        H    5 0.986    H    6 0.986    H    4 0.986    F    1 0.844
     4  H   0.991        C    3 0.986
     5  H   0.991        C    3 0.986
     6  H   0.991        C    3 0.986

molecular dipole:
                 x           y           z       tot (Debye)
 q only:       -1.982      -0.054       0.012
   full:       -1.853      -0.051       0.010       4.712
molecular quadrupole (traceless):
                xx          xy          yy          xz          yz          zz
 q only:      -18.629      -0.636       9.309       0.329       0.007       9.319
  q+dip:      -21.268      -0.719      10.628       0.388       0.006      10.640
   full:      -20.320      -0.688      10.155       0.369       0.007      10.166


           -------------------------------------------------
          | TOTAL ENERGY              -13.273598430946 Eh   |
          | GRADIENT NORM               0.076924607429 Eh/α |
          | HOMO-LUMO GAP               6.658716607330 eV   |
           -------------------------------------------------

------------------------------------------------------------------------
 * finished run on 2020/08/20 at 17:46:31.602     
------------------------------------------------------------------------
 total:
 * wall-time:     0 d,  0 h,  0 min,  0.088 sec
 *  cpu-time:     0 d,  0 h,  0 min,  0.017 sec
 * ratio c/w:     0.195 speedup
 SCF:
 * wall-time:     0 d,  0 h,  0 min,  0.007 sec
 *  cpu-time:     0 d,  0 h,  0 min,  0.007 sec
 * ratio c/w:     0.998 speedup

