
                                 *****************
                                 * O   R   C   A *
                                 *****************

           --- An Ab Initio, DFT and Semiempirical electronic structure package ---

                  #######################################################
                  #                        -***-                        #
                  #          Department of theory and spectroscopy      #
                  #               Directorship: Frank Neese             #
                  #        Max Planck Institute fuer Kohlenforschung    #
                  #                Kaiser Wilhelm Platz 1               #
                  #                 D-45470 Muelheim/Ruhr               #
                  #                      Germany                        #
                  #                                                     #
                  #                  All rights reserved                #
                  #                        -***-                        #
                  #######################################################


                         Program Version 4.1.1  - RELEASE  -


 With contributions from (in alphabetic order):
   Daniel Aravena         : Magnetic Properties
   Michael Atanasov       : Ab Initio Ligand Field Theory
   Alexander A. Auer      : GIAO ZORA
   Ute Becker             : Parallelization
   Giovanni Bistoni       : ED, Open-shell LED
   Martin Brehm           : Molecular dynamics
   Dmytro Bykov           : SCF Hessian
   Vijay G. Chilkuri      : MRCI spin determinant printing
   Dipayan Datta          : RHF DLPNO-CCSD density
   Achintya Kumar Dutta   : EOM-CC, STEOM-CC
   Dmitry Ganyushin       : Spin-Orbit,Spin-Spin,Magnetic field MRCI
   Miquel Garcia          : C-PCM Hessian
   Yang Guo               : DLPNO-NEVPT2, CIM, IAO-localization
   Andreas Hansen         : Spin unrestricted coupled pair/coupled cluster methods
   Benjamin Helmich-Paris : CASSCF linear response (MC-RPA)
   Lee Huntington         : MR-EOM, pCC
   Robert Izsak           : Overlap fitted RIJCOSX, COSX-SCS-MP3, EOM
   Christian Kollmar      : KDIIS, OOCD, Brueckner-CCSD(T), CCSD density
   Simone Kossmann        : Meta GGA functionals, TD-DFT gradient, OOMP2, MP2 Hessian
   Martin Krupicka        : AUTO-CI
   Lucas Lang             : DCDCAS
   Dagmar Lenk            : GEPOL surface, SMD
   Dimitrios Liakos       : Extrapolation schemes; parallel MDCI
   Dimitrios Manganas     : ROCIS; embedding schemes
   Dimitrios Pantazis     : SARC Basis sets
   Taras Petrenko         : DFT Hessian,TD-DFT gradient, ASA, ECA, R-Raman, ABS, FL, XAS/XES, NRVS
   Peter Pinski           : DLPNO-MP2, DLPNO-MP2 Gradient
   Christoph Reimann      : Effective Core Potentials
   Marius Retegan         : Local ZFS, SOC
   Christoph Riplinger    : Optimizer, TS searches, QM/MM, DLPNO-CCSD(T), (RO)-DLPNO pert. Triples
   Tobias Risthaus        : Range-separated hybrids, TD-DFT gradient, RPA, STAB
   Michael Roemelt        : Restricted open shell CIS
   Masaaki Saitow         : Open-shell DLPNO
   Barbara Sandhoefer     : DKH picture change effects
   Avijit Sen             : IP-ROCIS
   Kantharuban Sivalingam : CASSCF convergence, NEVPT2, FIC-MRCI
   Bernardo de Souza      : ESD, SOC TD-DFT
   Georgi Stoychev        : AutoAux, RI-MP2 NMR
   Willem Van den Heuvel  : Paramagnetic NMR
   Boris Wezisla          : Elementary symmetry handling
   Frank Wennmohs         : Technical directorship


 We gratefully acknowledge several colleagues who have allowed us to
 interface, adapt or use parts of their codes:
   Stefan Grimme, W. Hujo, H. Kruse,             : VdW corrections, initial TS optimization,
                  C. Bannwarth                     DFT functionals, gCP, sTDA/sTD-DF
   Ed Valeev                                     : LibInt (2-el integral package), F12 methods
   Garnet Chan, S. Sharma, J. Yang, R. Olivares  : DMRG
   Ulf Ekstrom                                   : XCFun DFT Library
   Mihaly Kallay                                 : mrcc  (arbitrary order and MRCC methods)
   Andreas Klamt, Michael Diedenhofen            : otool_cosmo (COSMO solvation model)
   Jiri Pittner, Ondrej Demel                    : Mk-CCSD
   Frank Weinhold                                : gennbo (NPA and NBO analysis)
   Christopher J. Cramer and Donald G. Truhlar   : smd solvation model
   Lars Goerigk                                  : TD-DFT with DH, B97 family of functionals
   V. Asgeirsson, H. Jonsson                     : NEB implementation
   FAccTs GmbH                                   : IRC, NEB, NEB-TS, Multilevel


 Your calculation uses the libint2 library for the computation of 2-el integrals
 For citations please refer to: http://libint.valeyev.net

 This ORCA versions uses:
   CBLAS   interface :  Fast vector & matrix operations
   LAPACKE interface :  Fast linear algebra routines
   SCALAPACK package :  Parallel linear algebra routines


Your calculation utilizes the atom-pairwise dispersion correction
with the Becke-Johnson damping scheme (D3BJ)
Cite in your paper:
S.Grimme, S.Ehrlich, L.Goerigk, J Comput Chem, (2011), 32, 1456–1465 
S.Grimme, J.Antony, S.Ehrlich and H.Krieg, J.Chem.Phys., 132, (2010), 154104 
   

Your calculation utilizes the SMD solvation module
Please cite in your paper:
A.V. Marenich, C.J. Cramer, D.G. Truhlar J. Phys. Chem. B, 113, (2009), 6378 

----- Orbital basis set information -----
Your calculation utilizes the basis: def2-SVP
   F. Weigend and R. Ahlrichs, Phys. Chem. Chem. Phys. 7, 3297 (2005).

----- AuxJ basis set information -----
Your calculation utilizes the auxiliary basis: def2/J
   F. Weigend, Phys. Chem. Chem. Phys. 8, 1057 (2006).

================================================================================
                                        WARNINGS
                       Please study these warnings very carefully!
================================================================================


WARNING: Geometry Optimization
  ===> : Switching off AutoStart
         For restart on a previous wavefunction, please use MOREAD

INFO   : the flag for use of LIBINT has been found!

================================================================================
                                       INPUT FILE
================================================================================
NAME = default_orca_scan.inp
|  1> ! LooseOpt PBE RI D3BJ def2-SVP def2/J PAL8
|  2> %cpcm
|  3>  smd true
|  4>  SMDsolvent "water"
|  5>  end
|  6> %geom Scan
|  7>     B 2 1 = 1.769, 3.269, 10
|  8>     end
|  9> end
| 10> %scf 
| 11> maxiter 250 
| 12> end
| 13> % maxcore 4000
| 14> *xyz -1 1
| 15> F	-3.5334	-0.1724	0.06480000000001951
| 16> C	0.0	0.0	0.0
| 17> Cl	1.7667	0.0862	-0.032400000000009754
| 18> H	-0.34650000000000003	-0.5137	-0.9232999999999976
| 19> H	-0.358	-0.4955	0.9258999999999986
| 20> H	-0.4538	1.016	-0.028600000000011505
| 21> *
| 22> 
| 23>                          ****END OF INPUT****
================================================================================

                       ******************************
                       *    Relaxed Surface Scan    *
                       ******************************

                      Bond (  2,   1):   range=   1.76900000 ..   3.26900000  steps =   10

There is 1 parameter to be scanned.
There will be   10 constrained geometry optimizations.


         *************************************************************
         *               RELAXED SURFACE SCAN STEP   1               *
         *                                                           *
         *                 Bond (  2,   1)  :   1.76900000           *
         *************************************************************

Geometry optimization settings:
Update method            Update   .... BFGS
Choice of coordinates    CoordSys .... Z-matrix Internals
Initial Hessian          InHess   .... Almoef's Model

Convergence Tolerances:
Energy Change            TolE     ....  3.0000e-05 Eh
Max. Gradient            TolMAXG  ....  2.0000e-03 Eh/bohr
RMS Gradient             TolRMSG  ....  5.0000e-04 Eh/bohr
Max. Displacement        TolMAXD  ....  1.0000e-02 bohr
RMS Displacement         TolRMSD  ....  7.0000e-03 bohr

------------------------------------------------------------------------------
                        ORCA OPTIMIZATION COORDINATE SETUP
------------------------------------------------------------------------------

The optimization will be done in new redundant internal coordinates
Making redundant internal coordinates   ...  (new redundants) done
Evaluating the initial hessian          ...  (Almloef) done
Evaluating the coordinates              ...  done
Calculating the B-matrix                .... done
Calculating the G-matrix                .... done
Diagonalizing the G-matrix              .... done
Imposing constraints:
 Iter   0:  RMS(Cart)=    0.0000400030 RMS(Int)=    0.0000000000
 Iter   1:  RMS(Cart)=    0.0000000000 RMS(Int)=    0.0000000000
CONVERGED
The first mode is                       ....    5
The number of degrees of freedom        ....   12
Storing new coordinates                 .... done

    -----------------------------------------------------------------
                    Redundant Internal Coordinates


    -----------------------------------------------------------------
         Definition                    Initial Value    Approx d2E/dq
    -----------------------------------------------------------------
      1. B(C   1,F   0)                  3.5382         0.000194   
      2. B(Cl  2,C   1)                  1.7690         0.348263 C 
      3. B(H   3,C   1)                  1.1120         0.332203   
      4. B(H   3,F   0)                  3.3540         0.000073   
      5. B(H   4,F   0)                  3.3059         0.000087   
      6. B(H   4,C   1)                  1.1095         0.335215   
      7. B(H   5,F   0)                  3.3023         0.000089   
      8. B(H   5,C   1)                  1.1131         0.330793   
      9. A(H   3,C   1,H   4)          112.7103         0.284003   
     10. A(Cl  2,C   1,H   5)          111.2347         0.329310   
     11. A(H   3,C   1,H   5)          105.8608         0.283418   
     12. A(H   4,C   1,H   5)          107.3095         0.283815   
     13. A(F   0,C   1,H   3)           71.4281         0.130161   
     14. A(F   0,C   1,H   4)           68.9442         0.130245   
     15. A(F   0,C   1,H   5)           68.7653         0.130121   
     16. A(Cl  2,C   1,H   3)          108.5719         0.329542   
     17. A(Cl  2,C   1,H   4)          111.0558         0.330034   
    -----------------------------------------------------------------

Number of atoms                         .... 6
Number of degrees of freedom            .... 17

         *************************************************************
         *                GEOMETRY OPTIMIZATION CYCLE   1            *
         *************************************************************
---------------------------------
CARTESIAN COORDINATES (ANGSTROEM)
---------------------------------
  F     -3.533384   -0.172399    0.064800
  C      0.000016    0.000001   -0.000000
  Cl     1.766618    0.086196   -0.032399
  H     -0.346484   -0.513699   -0.923300
  H     -0.357984   -0.495499    0.925900
  H     -0.453784    1.016001   -0.028600

----------------------------
CARTESIAN COORDINATES (A.U.)
----------------------------
  NO LB      ZA    FRAG     MASS         X           Y           Z
   0 F     9.0000    0    18.998   -6.677127   -0.325788    0.122454
   1 C     6.0000    0    12.011    0.000031    0.000002   -0.000001
   2 Cl   17.0000    0    35.453    3.338424    0.162887   -0.061224
   3 H     1.0000    0     1.008   -0.654759   -0.970751   -1.744785
   4 H     1.0000    0     1.008   -0.676491   -0.936358    1.749697
   5 H     1.0000    0     1.008   -0.857527    1.919963   -0.054047

--------------------------------
INTERNAL COORDINATES (ANGSTROEM)
--------------------------------
 F      0   0   0     0.000000000000     0.00000000     0.00000000
 C      1   0   0     3.538196766716     0.00000000     0.00000000
 Cl     2   1   0     1.769098383358   180.00000000     0.00000000
 H      2   1   3     1.111950012366    71.42805264     0.00000000
 H      2   1   4     1.109493154553    68.94419768   235.54405542
 H      2   1   5     1.113107541974    68.76527100   240.55181549

---------------------------
INTERNAL COORDINATES (A.U.)
---------------------------
 F      0   0   0     0.000000000000     0.00000000     0.00000000
 C      1   0   0     6.686222897019     0.00000000     0.00000000
 Cl     2   1   0     3.343111448510   180.00000000     0.00000000
 H      2   1   3     2.101280997981    71.42805264     0.00000000
 H      2   1   4     2.096638209566    68.94419768   235.54405542
 H      2   1   5     2.103468411934    68.76527100   240.55181549

---------------------
BASIS SET INFORMATION
---------------------
There are 4 groups of distinct atoms

 Group   1 Type F   : 7s4p1d contracted to 3s2p1d pattern {511/31/1}
 Group   2 Type C   : 7s4p1d contracted to 3s2p1d pattern {511/31/1}
 Group   3 Type Cl  : 10s7p1d contracted to 4s3p1d pattern {5311/511/1}
 Group   4 Type H   : 4s1p contracted to 2s1p pattern {31/1}

Atom   0F    basis set group =>   1
Atom   1C    basis set group =>   2
Atom   2Cl   basis set group =>   3
Atom   3H    basis set group =>   4
Atom   4H    basis set group =>   4
Atom   5H    basis set group =>   4
-------------------------------
AUXILIARY BASIS SET INFORMATION
-------------------------------
There are 4 groups of distinct atoms

 Group   1 Type F   : 12s5p4d2f1g contracted to 6s4p3d1f1g pattern {711111/2111/211/2/1}
 Group   2 Type C   : 12s5p4d2f1g contracted to 6s4p3d1f1g pattern {711111/2111/211/2/1}
 Group   3 Type Cl  : 14s5p5d2f1g contracted to 8s4p3d1f1g pattern {71111111/2111/311/2/1}
 Group   4 Type H   : 5s2p1d contracted to 3s1p1d pattern {311/2/1}

Atom   0F    basis set group =>   1
Atom   1C    basis set group =>   2
Atom   2Cl   basis set group =>   3
Atom   3H    basis set group =>   4
Atom   4H    basis set group =>   4
Atom   5H    basis set group =>   4


           ************************************************************
           *        Program running with 8 parallel MPI-processes     *
           *              working on a common directory               *
           ************************************************************
------------------------------------------------------------------------------
                           ORCA GTO INTEGRAL CALCULATION
                           -- RI-GTO INTEGRALS CHOSEN --
------------------------------------------------------------------------------

                         BASIS SET STATISTICS AND STARTUP INFO

Gaussian basis set:
 # of primitive gaussian shells          ...   57
 # of primitive gaussian functions       ...  105
 # of contracted shells                  ...   29
 # of contracted basis functions         ...   61
 Highest angular momentum                ...    2
 Maximum contraction depth               ...    5
Auxiliary gaussian basis set:
 # of primitive gaussian shells          ...   99
 # of primitive gaussian functions       ...  265
 # of contracted shells                  ...   62
 # of contracted aux-basis functions     ...  182
 Highest angular momentum                ...    4
 Maximum contraction depth               ...    7
Ratio of auxiliary to basis functions    ...  2.98
Integral package used                  ... LIBINT
 One Electron integrals                  ... done
 Ordering auxiliary basis shells         ... done
 Integral threshhold             Thresh  ...  2.500e-11
 Primitive cut-off               TCut    ...  2.500e-12
 Pre-screening matrix                    ... done
 Shell pair data                         ... 
 Ordering of the shell pairs             ... done (   0.000 sec) 398 of 435 pairs
 Determination of significant pairs      ... done (   0.000 sec)
 Creation of shell pair data             ... done (   0.000 sec)
 Storage of shell pair data              ... done (   0.036 sec)
 Shell pair data done in (   0.036 sec)
 Computing two index integrals           ... done
 Cholesky decomposition of the V-matrix  ... done


Timings:
 Total evaluation time                   ...   0.186 sec (  0.003 min)
 One electron matrix time                ...   0.014 sec (  0.000 min) =  7.5%
 Schwartz matrix evaluation time         ...   0.117 sec (  0.002 min) = 63.3%
 Two index repulsion integral time       ...   0.001 sec (  0.000 min) =  0.5%
 Cholesky decomposition of V             ...   0.001 sec (  0.000 min) =  0.5%
 Three index repulsion integral time     ...   0.000 sec (  0.000 min) =  0.0%



           ************************************************************
           *        Program running with 8 parallel MPI-processes     *
           *              working on a common directory               *
           ************************************************************
-------------------------------------------------------------------------------
                                 ORCA SCF
-------------------------------------------------------------------------------

------------
SCF SETTINGS
------------
Hamiltonian:
 Density Functional     Method          .... DFT(GTOs)
 Exchange Functional    Exchange        .... PBE
   PBE kappa parameter   XKappa         ....  0.804000
   PBE mue parameter    XMuePBE         ....  0.219520
 Correlation Functional Correlation     .... PBE
   PBE beta parameter  CBetaPBE         ....  0.066725
 LDA part of GGA corr.  LDAOpt          .... PW91-LDA
 Gradients option       PostSCFGGA      .... off
   Density functional embedding theory  .... OFF
   NL short-range parameter             ....  6.400000
 RI-approximation to the Coulomb term is turned on
   Number of auxiliary basis functions  .... 182


General Settings:
 Integral files         IntName         .... default_orca_scan
 Hartree-Fock type      HFTyp           .... RHF
 Total Charge           Charge          ....   -1
 Multiplicity           Mult            ....    1
 Number of Electrons    NEL             ....   36
 Basis Dimension        Dim             ....   61
 Nuclear Repulsion      ENuc            ....     78.8733535413 Eh

Convergence Acceleration:
 DIIS                   CNVDIIS         .... on
   Start iteration      DIISMaxIt       ....    12
   Startup error        DIISStart       ....  0.200000
   # of expansion vecs  DIISMaxEq       ....     5
   Bias factor          DIISBfac        ....   1.050
   Max. coefficient     DIISMaxC        ....  10.000
 Newton-Raphson         CNVNR           .... off
 SOSCF                  CNVSOSCF        .... on
   Start iteration      SOSCFMaxIt      ....   150
   Startup grad/error   SOSCFStart      ....  0.003300
 Level Shifting         CNVShift        .... on
   Level shift para.    LevelShift      ....    0.2500
   Turn off err/grad.   ShiftErr        ....    0.0010
 Zerner damping         CNVZerner       .... off
 Static damping         CNVDamp         .... on
   Fraction old density DampFac         ....    0.7000
   Max. Damping (<1)    DampMax         ....    0.9800
   Min. Damping (>=0)   DampMin         ....    0.0000
   Turn off err/grad.   DampErr         ....    0.1000
 Fernandez-Rico         CNVRico         .... off

SCF Procedure:
 Maximum # iterations   MaxIter         ....   250
 SCF integral mode      SCFMode         .... Direct
   Integral package                     .... LIBINT
 Reset frequency        DirectResetFreq ....    20
 Integral Threshold     Thresh          ....  2.500e-11 Eh
 Primitive CutOff       TCut            ....  2.500e-12 Eh

Convergence Tolerance:
 Convergence Check Mode ConvCheckMode   .... Total+1el-Energy
 Convergence forced     ConvForced      .... 0
 Energy Change          TolE            ....  1.000e-08 Eh
 1-El. energy change                    ....  1.000e-05 Eh
 Orbital Gradient       TolG            ....  1.000e-05
 Orbital Rotation angle TolX            ....  1.000e-05
 DIIS Error             TolErr          ....  5.000e-07


Diagonalization of the overlap matrix:
Smallest eigenvalue                        ... 1.162e-02
Time for diagonalization                   ...    0.002 sec
Threshold for overlap eigenvalues          ... 1.000e-08
Number of eigenvalues below threshold      ... 0
Time for construction of square roots      ...    0.001 sec
Total time needed                          ...    0.004 sec

-------------------
DFT GRID GENERATION
-------------------

General Integration Accuracy     IntAcc      ...  4.340
Radial Grid Type                 RadialGrid  ... Gauss-Chebyshev
Angular Grid (max. acc.)         AngularGrid ... Lebedev-110
Angular grid pruning method      GridPruning ... 3 (G Style)
Weight generation scheme         WeightScheme... Becke
Basis function cutoff            BFCut       ...    1.0000e-11
Integration weight cutoff        WCut        ...    1.0000e-14
Grids for H and He will be reduced by one unit

# of grid points (after initial pruning)     ...   7622 (   0.0 sec)
# of grid points (after weights+screening)   ...   7461 (   0.0 sec)
nearest neighbour list constructed           ...    0.0 sec
Grid point re-assignment to atoms done       ...    0.0 sec
Grid point division into batches done        ...    0.0 sec
Reduced shell lists constructed in    0.0 sec

Total number of grid points                  ...     7461
Total number of batches                      ...      119
Average number of points per batch           ...       62
Average number of grid points per atom       ...     1244
Average number of shells per batch           ...    15.62 (53.88%)
Average number of basis functions per batch  ...    30.75 (50.41%)
Average number of large shells per batch     ...    11.06 (70.80%)
Average number of large basis fcns per batch ...    20.94 (68.09%)
Maximum spatial batch extension              ...  13.51, 22.95, 25.60 au
Average spatial batch extension              ...   0.91,  1.44,  1.45 au

Time for grid setup =    0.021 sec

------------------------------
INITIAL GUESS: MODEL POTENTIAL
------------------------------
Loading Hartree-Fock densities                     ... done
Calculating cut-offs                               ... done
Setting up the integral package                    ... done
Initializing the effective Hamiltonian             ... done
Starting the Coulomb interaction                   ... done (   0.0 sec)
Reading the grid                                   ... done
Mapping shells                                     ... done
Starting the XC term evaluation                    ... done (   0.0 sec)
  promolecular density results
     # of electrons  =     34.995173739
     EX              =    -43.270420493
     EC              =     -1.238088308
     EX+EC           =    -44.508508801
Transforming the Hamiltonian                       ... done (   0.0 sec)
Diagonalizing the Hamiltonian                      ... done (   0.0 sec)
Back transforming the eigenvectors                 ... done (   0.0 sec)
Now organizing SCF variables                       ... done
                      ------------------
                      INITIAL GUESS DONE (   0.1 sec)
                      ------------------

--------------------
CPCM SOLVATION MODEL
--------------------
CPCM parameters:
  Epsilon                                         ...      78.3550
  Refrac                                          ...       1.0000
  Rsolv                                           ...       1.3000
  Surface type                                    ...    GEPOL SES
  Epsilon function type                           ...         CPCM
Solvent:                                     ... WATER
SMD-CDS solvent descriptors:
  Soln                                       ...    1.3328
  Soln25                                     ...    1.3323
  Sola                                       ...    0.0000
  Solb                                       ...    0.0000
  Solg                                       ...    0.0000
  Solc                                       ...    0.0000
  Solh                                       ...    0.0000
Radii:
 Radius for F  used is    3.2692 Bohr (=   1.7300 Ang.)
 Radius for C  used is    3.4960 Bohr (=   1.8500 Ang.)
 Radius for Cl used is    4.4975 Bohr (=   2.3800 Ang.)
 Radius for H  used is    2.2677 Bohr (=   1.2000 Ang.)
Calculating surface                               ...        done! (  0.0s)
GEPOL surface points                              ...          296
GEPOL Volume                                      ...     644.0156
GEPOL Surface-area                                ...     432.1049
Calculating surface distance matrix               ...        done! (  0.0s)
Performing Cholesky decomposition & store         ...        done! (  0.0s)
Overall time for CPCM initialization              ...                 0.0s
--------------
SCF ITERATIONS
--------------
ITER       Energy         Delta-E        Max-DP      RMS-DP      [F,P]     Damp
               ***  Starting incremental Fock matrix formation  ***
  0   -599.2923928443   0.000000000000 0.11015368  0.00624810  0.3748766 0.7000
  1   -599.3578594190  -0.065466574770 0.09334112  0.00449914  0.1403147 0.7000
                               ***Turning on DIIS***
  2   -599.3798310153  -0.021971596217 0.19842117  0.00730195  0.0232423 0.0000
  3   -599.4197922920  -0.039961276749 0.06758864  0.00276251  0.0765735 0.0000
  4   -599.4262515591  -0.006459267114 0.02527075  0.00098073  0.0051136 0.0000
                      *** Initiating the SOSCF procedure ***
                           *** Shutting down DIIS ***
                      *** Re-Reading the Fockian *** 
                      *** Removing any level shift *** 
ITER      Energy       Delta-E        Grad      Rot      Max-DP    RMS-DP
  5   -599.42648103  -0.0002294699  0.001810  0.001810  0.014825  0.000563
               *** Restarting incremental Fock matrix formation ***
  6   -599.42652754  -0.0000465119  0.000892  0.007287  0.019375  0.000722
  7   -599.42654475  -0.0000172093  0.000502  0.000916  0.001786  0.000097
  8   -599.42654454   0.0000002071  0.000450  0.001416  0.003568  0.000138
  9   -599.42654750  -0.0000029580  0.000025  0.000197  0.000524  0.000020
 10   -599.42654751  -0.0000000054  0.000049  0.000027  0.000072  0.000004
                 **** Energy Check signals convergence ****
              ***Rediagonalizing the Fockian in SOSCF/NRSCF***

               *****************************************************
               *                     SUCCESS                       *
               *           SCF CONVERGED AFTER  11 CYCLES          *
               *****************************************************

Setting up the final grid:

General Integration Accuracy     IntAcc      ...  4.670
Radial Grid Type                 RadialGrid  ... Gauss-Chebyshev
Angular Grid (max. acc.)         AngularGrid ... Lebedev-302
Angular grid pruning method      GridPruning ... 3 (G Style)
Weight generation scheme         WeightScheme... Becke
Basis function cutoff            BFCut       ...    1.0000e-11
Integration weight cutoff        WCut        ...    1.0000e-14
Grids for H and He will be reduced by one unit

# of grid points (after initial pruning)     ...  29404 (   0.0 sec)
# of grid points (after weights+screening)   ...  28687 (   0.0 sec)
nearest neighbour list constructed           ...    0.0 sec
Grid point re-assignment to atoms done       ...    0.0 sec
Grid point division into batches done        ...    0.1 sec
Reduced shell lists constructed in    0.1 sec

Total number of grid points                  ...    28687
Total number of batches                      ...      452
Average number of points per batch           ...       63
Average number of grid points per atom       ...     4781
Average number of shells per batch           ...    12.72 (43.88%)
Average number of basis functions per batch  ...    24.52 (40.19%)
Average number of large shells per batch     ...     9.38 (73.71%)
Average number of large basis fcns per batch ...    18.31 (74.68%)
Maximum spatial batch extension              ...  12.40, 16.88, 16.88 au
Average spatial batch extension              ...   0.61,  0.77,  0.73 au

Final grid set up in    0.1 sec
Final integration                            ... done (   0.0 sec)
Change in XC energy                          ...     0.000531637
Integrated number of electrons               ...    35.999986642
Previous integrated no of electrons          ...    35.999982877

SMD CDS free energy correction energy :                 3.40635     Kcal/mol
Total Energy after SMD CDS correction =              -599.420587509 Eh

----------------
TOTAL SCF ENERGY
----------------

Total Energy       :         -599.42058751 Eh          -16311.06342 eV

Components:
Nuclear Repulsion  :           78.87335354 Eh            2146.25306 eV
Electronic Energy  :         -678.29394105 Eh          -18457.31649 eV
One Electron Energy:         -993.03743133 Eh          -27021.92227 eV
Two Electron Energy:          314.74349028 Eh            8564.60579 eV
CPCM Dielectric    :           -0.13307718 Eh              -3.62121 eV
SMD CDS (Gcds)     :            0.00542837 Eh               0.14771 eV

Virial components:
Potential Energy   :        -1196.99094193 Eh          -32571.77945 eV
Kinetic Energy     :          597.57035442 Eh           16260.71602 eV
Virial Ratio       :            2.00309626


DFT components:
N(Alpha)           :       17.999993320990 electrons
N(Beta)            :       17.999993320990 electrons
N(Total)           :       35.999986641980 electrons
E(X)               :      -43.923714949065 Eh       
E(C)               :       -1.290986496705 Eh       
E(XC)              :      -45.214701445770 Eh       
DFET-embed. en.    :        0.000000000000 Eh       
CPCM Solvation Model Properties:
Surface-charge          :            0.99135733
Charge-correction       :           -0.00162009 Eh              -0.04408 eV
Free-energy (cav+disp)  :            0.00340943 Eh               0.09278 eV
Corrected G(solv)       :         -599.41879817 Eh          -16311.01473 eV

---------------
SCF CONVERGENCE
---------------

  Last Energy change         ...   -6.9997e-09  Tolerance :   1.0000e-08
  Last MAX-Density change    ...    7.8730e-05  Tolerance :   1.0000e-07
  Last RMS-Density change    ...    3.0517e-06  Tolerance :   5.0000e-09
  Last Orbital Gradient      ...    1.6070e-05  Tolerance :   1.0000e-05
  Last Orbital Rotation      ...    2.8538e-05  Tolerance :   1.0000e-05

             **** THE GBW FILE WAS UPDATED (default_orca_scan.gbw) ****
             **** DENSITY FILE WAS UPDATED (default_orca_scan.scfp.tmp) ****
             **** ENERGY FILE WAS UPDATED (default_orca_scan.en.tmp) ****
----------------
ORBITAL ENERGIES
----------------

  NO   OCC          E(Eh)            E(eV) 
   0   2.0000    -100.614071     -2737.8481 
   1   2.0000     -23.969890      -652.2539 
   2   2.0000      -9.929400      -270.1927 
   3   2.0000      -9.149630      -248.9741 
   4   2.0000      -6.981339      -189.9719 
   5   2.0000      -6.969464      -189.6487 
   6   2.0000      -6.969418      -189.6475 
   7   2.0000      -0.761535       -20.7224 
   8   2.0000      -0.738303       -20.0903 
   9   2.0000      -0.579542       -15.7701 
  10   2.0000      -0.378090       -10.2884 
  11   2.0000      -0.368482       -10.0269 
  12   2.0000      -0.361972        -9.8498 
  13   2.0000      -0.240519        -6.5449 
  14   2.0000      -0.238359        -6.4861 
  15   2.0000      -0.089659        -2.4397 
  16   2.0000      -0.087126        -2.3708 
  17   2.0000      -0.086757        -2.3608 
  18   0.0000       0.029802         0.8110 
  19   0.0000       0.075707         2.0601 
  20   0.0000       0.110411         3.0044 
  21   0.0000       0.113969         3.1013 
  22   0.0000       0.379712        10.3325 
  23   0.0000       0.393604        10.7105 
  24   0.0000       0.405036        11.0216 
  25   0.0000       0.491672        13.3791 
  26   0.0000       0.605980        16.4895 
  27   0.0000       0.608965        16.5708 
  28   0.0000       0.612396        16.6641 
  29   0.0000       0.719715        19.5844 
  30   0.0000       0.727815        19.8048 
  31   0.0000       0.746609        20.3163 
  32   0.0000       0.753625        20.5072 
  33   0.0000       0.756405        20.5828 
  34   0.0000       0.761751        20.7283 
  35   0.0000       0.861041        23.4301 
  36   0.0000       0.867295        23.6003 
  37   0.0000       1.187047        32.3012 
  38   0.0000       1.193366        32.4731 
  39   0.0000       1.208432        32.8831 
  40   0.0000       1.252114        34.0718 
  41   0.0000       1.255003        34.1504 
  42   0.0000       1.255657        34.1682 
  43   0.0000       1.272517        34.6269 
  44   0.0000       1.456681        39.6383 
  45   0.0000       1.658690        45.1352 
  46   0.0000       1.678982        45.6874 
  47   0.0000       1.834246        49.9124 
  48   0.0000       1.853476        50.4357 
  49   0.0000       1.876869        51.0722 
  50   0.0000       2.144046        58.3425 
  51   0.0000       2.296521        62.4915 
  52   0.0000       2.328429        63.3598 
  53   0.0000       2.568228        69.8850 
  54   0.0000       2.771826        75.4252 
  55   0.0000       2.811013        76.4915 
  56   0.0000       3.234346        88.0110 
  57   0.0000       3.234370        88.0117 
  58   0.0000       3.234741        88.0218 
  59   0.0000       3.234796        88.0233 
  60   0.0000       3.235055        88.0303 

                    ********************************
                    * MULLIKEN POPULATION ANALYSIS *
                    ********************************

-----------------------
MULLIKEN ATOMIC CHARGES
-----------------------
   0 F :   -0.937322
   1 C :   -0.059880
   2 Cl:   -0.221850
   3 H :    0.076223
   4 H :    0.076018
   5 H :    0.066811
Sum of atomic charges:   -1.0000000

--------------------------------
MULLIKEN REDUCED ORBITAL CHARGES
--------------------------------
  0 F s       :     3.998762  s :     3.998762
      pz      :     1.994879  p :     5.938559
      px      :     1.948848
      py      :     1.994832
      dz2     :     0.000000  d :     0.000001
      dxz     :     0.000000
      dyz     :     0.000000
      dx2y2   :     0.000000
      dxy     :     0.000000
  1 C s       :     3.092525  s :     3.092525
      pz      :     1.080446  p :     2.936891
      px      :     0.756385
      py      :     1.100060
      dz2     :     0.006129  d :     0.030464
      dxz     :     0.005752
      dyz     :     0.003762
      dx2y2   :     0.008461
      dxy     :     0.006359
  2 Cls       :     5.956816  s :     5.956816
      pz      :     3.973573  p :    11.230853
      px      :     3.286576
      py      :     3.970704
      dz2     :     0.004718  d :     0.034180
      dxz     :     0.007504
      dyz     :     0.000094
      dx2y2   :     0.014017
      dxy     :     0.007848
  3 H s       :     0.901498  s :     0.901498
      pz      :     0.010959  p :     0.022280
      px      :     0.004284
      py      :     0.007036
  4 H s       :     0.901681  s :     0.901681
      pz      :     0.011084  p :     0.022301
      px      :     0.004333
      py      :     0.006884
  5 H s       :     0.910748  s :     0.910748
      pz      :     0.005115  p :     0.022441
      px      :     0.004906
      py      :     0.012419


                     *******************************
                     * LOEWDIN POPULATION ANALYSIS *
                     *******************************

----------------------
LOEWDIN ATOMIC CHARGES
----------------------
   0 F :   -0.944625
   1 C :   -0.137056
   2 Cl:   -0.006557
   3 H :    0.030645
   4 H :    0.029181
   5 H :    0.028412

-------------------------------
LOEWDIN REDUCED ORBITAL CHARGES
-------------------------------
  0 F s       :     3.998957  s :     3.998957
      pz      :     1.995826  p :     5.945666
      px      :     1.954055
      py      :     1.995786
      dz2     :     0.000000  d :     0.000002
      dxz     :     0.000000
      dyz     :     0.000000
      dx2y2   :     0.000001
      dxy     :     0.000000
  1 C s       :     2.928127  s :     2.928127
      pz      :     1.115650  p :     3.132300
      px      :     0.886329
      py      :     1.130321
      dz2     :     0.015543  d :     0.076629
      dxz     :     0.014515
      dyz     :     0.010551
      dx2y2   :     0.019613
      dxy     :     0.016408
  2 Cls       :     5.781524  s :     5.781524
      pz      :     3.952731  p :    11.187201
      px      :     3.283841
      py      :     3.950629
      dz2     :     0.005698  d :     0.037832
      dxz     :     0.007320
      dyz     :     0.000090
      dx2y2   :     0.016888
      dxy     :     0.007837
  3 H s       :     0.901681  s :     0.901681
      pz      :     0.034055  p :     0.067675
      px      :     0.014009
      py      :     0.019611
  4 H s       :     0.902579  s :     0.902579
      pz      :     0.034614  p :     0.068240
      px      :     0.014291
      py      :     0.019336
  5 H s       :     0.903960  s :     0.903960
      pz      :     0.012678  p :     0.067627
      px      :     0.016642
      py      :     0.038308


                      *****************************
                      * MAYER POPULATION ANALYSIS *
                      *****************************

  NA   - Mulliken gross atomic population
  ZA   - Total nuclear charge
  QA   - Mulliken gross atomic charge
  VA   - Mayer's total valence
  BVA  - Mayer's bonded valence
  FA   - Mayer's free valence

  ATOM       NA         ZA         QA         VA         BVA        FA
  0 F      9.9373     9.0000    -0.9373     0.1226     0.1226     0.0000
  1 C      6.0599     6.0000    -0.0599     3.8665     3.8665     0.0000
  2 Cl    17.2218    17.0000    -0.2218     1.0212     1.0212    -0.0000
  3 H      0.9238     1.0000     0.0762     1.0075     1.0075     0.0000
  4 H      0.9240     1.0000     0.0760     1.0116     1.0116     0.0000
  5 H      0.9332     1.0000     0.0668     1.0127     1.0127    -0.0000

  Mayer bond orders larger than 0.1
B(  1-C ,  2-Cl) :   0.9670 B(  1-C ,  3-H ) :   0.9677 B(  1-C ,  4-H ) :   0.9646 
B(  1-C ,  5-H ) :   0.9642 

-------
TIMINGS
-------

Total SCF time: 0 days 0 hours 0 min 3 sec 

Total time                  ....       3.965 sec
Sum of individual times     ....       3.844 sec  ( 96.9%)

Fock matrix formation       ....       3.619 sec  ( 91.3%)
  Split-RI-J                ....       1.163 sec  ( 32.1% of F)
  XC integration            ....       0.078 sec  (  2.1% of F)
    Basis function eval.    ....       0.018 sec  ( 23.6% of XC)
    Density eval.           ....       0.007 sec  (  9.1% of XC)
    XC-Functional eval.     ....       0.008 sec  ( 10.7% of XC)
    XC-Potential eval.      ....       0.008 sec  ( 10.0% of XC)
Diagonalization             ....       0.003 sec  (  0.1%)
Density matrix formation    ....       0.001 sec  (  0.0%)
Population analysis         ....       0.002 sec  (  0.0%)
Initial guess               ....       0.092 sec  (  2.3%)
Orbital Transformation      ....       0.000 sec  (  0.0%)
Orbital Orthonormalization  ....       0.000 sec  (  0.0%)
DIIS solution               ....       0.001 sec  (  0.0%)
SOSCF solution              ....       0.002 sec  (  0.0%)
Grid generation             ....       0.125 sec  (  3.2%)


-------------------------------------------------------------------------------
                          DFT DISPERSION CORRECTION                            
                                                                               
                              DFTD3 V3.1  Rev 1                                
                          USING Becke-Johnson damping                          
-------------------------------------------------------------------------------
The PBE functional is recognized
Active option DFTDOPT                   ...         4   

molecular C6(AA) [au] = 486.692822 


            DFT-D V3
 parameters
 s6 scaling factor         :     1.0000 
 a1 scaling factor         :     0.4289 
 s8 scaling factor         :     0.7875 
 a2 scaling factor         :     4.4407 
 ad hoc parameters k1-k3   :    16.0000     1.3333    -4.0000 

 Edisp/kcal,au: -1.577193199077  -0.002513417081 
 E6   /kcal   :  -1.111867454 
 E8   /kcal   :  -0.465325745 
 % E8         :  29.503408039 

-------------------------   ----------------
Dispersion correction           -0.002513417
-------------------------   ----------------


-------------------------   --------------------
FINAL SINGLE POINT ENERGY      -599.423100925806
-------------------------   --------------------



           ************************************************************
           *        Program running with 8 parallel MPI-processes     *
           *              working on a common directory               *
           ************************************************************
------------------------------------------------------------------------------
                         ORCA SCF GRADIENT CALCULATION
------------------------------------------------------------------------------

Gradient of the Kohn-Sham DFT energy:
Kohn-Sham wavefunction type      ... RKS
Hartree-Fock exchange scaling    ...    0.000
Number of operators              ...    1
Number of atoms                  ...    6
Basis set dimensions             ...   61
Integral neglect threshold       ... 2.5e-11
Integral primitive cutoff        ... 2.5e-12

Nuclear repulsion gradient       ... done
One Electron Gradient            ... done
Pre-screening matrix             ... done
RI-J gradient                    ... done
Exchange-correlation gradient    ... done
Dispersion correction            ... done

------------------
CARTESIAN GRADIENT
------------------

   1   F   :   -0.010095744   -0.000668586    0.000058644
   2   C   :    0.020527581   -0.005355144    0.005333148
   3   Cl  :   -0.010490275   -0.001534182   -0.001604402
   4   H   :    0.002197362    0.002551451   -0.007345189
   5   H   :    0.000565192    0.002219214    0.005065183
   6   H   :   -0.002704116    0.002787247   -0.001507384

Difference to translation invariance:
           :   -0.0000000000    0.0000000000   -0.0000000000

Norm of the cartesian gradient     ...    0.0284498424
RMS gradient                       ...    0.0067056922
MAX gradient                       ...    0.0205275814

-------
TIMINGS
-------

Total SCF gradient time            ...        0.476 sec

One electron gradient       ....       0.004 sec  (  0.9%)
Prescreening matrices       ....       0.005 sec  (  1.0%)
RI-J Coulomb gradient       ....       0.100 sec  ( 21.1%)
XC gradient                 ....       0.036 sec  (  7.5%)
CPCM gradient               ....       0.079 sec  ( 16.6%)
   A-Matrix (El+Nuc)        ....       0.005 sec  (  1.0%)
   Potential                ....       0.075 sec  ( 15.7%)
------------------------------------------------------------------------------
                         ORCA GEOMETRY RELAXATION STEP
------------------------------------------------------------------------------

Reading the OPT-File                    .... done
Getting information on internals        .... done
Copying old internal coords+grads       .... done
Making the new internal coordinates     .... (new redundants).... done
Validating the new internal coordinates .... (new redundants).... done
Calculating the B-matrix                .... done
Calculating the G,G- and P matrices     .... done
Transforming gradient to internals      .... done
Projecting the internal gradient        .... done
Number of atoms                         ....   6
Number of internal coordinates          ....  17
Current Energy                          ....  -599.423100926 Eh
Current gradient norm                   ....     0.028449842 Eh/bohr
Maximum allowed component of the step   ....  0.300
Current trust radius                    ....  0.300
Evaluating the initial hessian          ....  (Almloef) done
Projecting the Hessian                  .... done
Forming the augmented Hessian           .... done
Diagonalizing the augmented Hessian     .... done
Last element of RFO vector              ....  0.730664450
Lowest eigenvalues of augmented Hessian:
 -0.005518378  0.005005618  0.024112726  0.024210097  0.179143890
Length of the computed step             ....  0.934405313
Warning: the length of the step is outside the trust region - taking restricted step instead
The input lambda is                     ....    -0.005518
   iter:   1  x=   -0.008050  g=  309.317534 f(x)=     0.783113
   iter:   2  x=   -0.011266  g=  101.566246 f(x)=     0.326626
   iter:   3  x=   -0.014609  g=   37.509997 f(x)=     0.125396
   iter:   4  x=   -0.016886  g=   17.329503 f(x)=     0.039460
   iter:   5  x=   -0.017558  g=   11.262044 f(x)=     0.007568
   iter:   6  x=   -0.017600  g=   10.027075 f(x)=     0.000426
   iter:   7  x=   -0.017601  g=    9.955259 f(x)=     0.000002
   iter:   8  x=   -0.017601  g=    9.955001 f(x)=     0.000000
   iter:   9  x=   -0.017601  g=    9.955001 f(x)=     0.000000
The output lambda is                    ....    -0.017601 (9 iterations)
The final length of the internal step   ....  0.300000000
Converting the step to cartesian space:
 Initial RMS(Int)=    0.0727606875
Transforming coordinates:
 Iter   0:  RMS(Cart)=    0.0363960240 RMS(Int)=    0.0726579011
 Iter   1:  RMS(Cart)=    0.0002242515 RMS(Int)=    0.0002056828
 Iter   2:  RMS(Cart)=    0.0000037215 RMS(Int)=    0.0000036040
 Iter   3:  RMS(Cart)=    0.0000000453 RMS(Int)=    0.0000000480
Imposing constraints:
 Iter   0:  RMS(Cart)=    0.0000000002 RMS(Int)=    0.0000000000
CONVERGED
done
Storing new coordinates                 .... done

                                .--------------------.
          ----------------------|Geometry convergence|-------------------------
          Item                value                   Tolerance       Converged
          ---------------------------------------------------------------------
          RMS gradient        0.0035291135            0.0005000000      NO
          MAX gradient        0.0074734248            0.0020000000      NO
          RMS step            0.0727606875            0.0070000000      NO
          MAX step            0.1590682236            0.0100000000      NO
          ........................................................
          Max(Bonds)      0.0842      Max(Angles)    1.36
          Max(Dihed)        0.00      Max(Improp)    0.00
          ---------------------------------------------------------------------

The optimization has not yet converged - more geometry cycles are needed


    ---------------------------------------------------------------------------
                         Redundant Internal Coordinates
                            (Angstroem and degrees)

        Definition                    Value    dE/dq     Step     New-Value
    ----------------------------------------------------------------------------
     1. B(C   1,F   0)                3.5382  0.003723 -0.0842    3.4540   
     2. B(Cl  2,C   1)                1.7690 -0.010521  0.0000    1.7690 C 
     3. B(H   3,C   1)                1.1120  0.004248 -0.0064    1.1055   
     4. B(H   3,F   0)                3.3540  0.001961 -0.0728    3.2811   
     5. B(H   4,F   0)                3.3059  0.002316 -0.0777    3.2283   
     6. B(H   4,C   1)                1.1095  0.003164 -0.0048    1.1047   
     7. B(H   5,F   0)                3.3023  0.002455 -0.0791    3.2231   
     8. B(H   5,C   1)                1.1131  0.003810 -0.0058    1.1073   
     9. A(H   3,C   1,H   4)          112.71  0.007473   -1.36    111.35   
    10. A(Cl  2,C   1,H   5)          111.23  0.002864   -0.54    110.69   
    11. A(H   3,C   1,H   5)          105.86 -0.006375    1.27    107.13   
    12. A(H   4,C   1,H   5)          107.31 -0.003076    0.65    107.96   
    13. A(F   0,C   1,H   3)           71.43 -0.000740    0.36     71.79   
    14. A(F   0,C   1,H   4)           68.94 -0.000509    0.11     69.05   
    15. A(F   0,C   1,H   5)           68.77 -0.000421    0.03     68.79   
    16. A(Cl  2,C   1,H   3)          108.57 -0.004053    0.59    109.17   
    17. A(Cl  2,C   1,H   4)          111.06  0.002913   -0.56    110.50   
    ----------------------------------------------------------------------------

         *************************************************************
         *                GEOMETRY OPTIMIZATION CYCLE   2            *
         *************************************************************
---------------------------------
CARTESIAN COORDINATES (ANGSTROEM)
---------------------------------
  F     -3.466087   -0.159049    0.069751
  C     -0.016677    0.000948   -0.006566
  Cl     1.749514    0.099539   -0.020978
  H     -0.358142   -0.527463   -0.915609
  H     -0.368368   -0.506442    0.909564
  H     -0.465240    1.013066   -0.029763

----------------------------
CARTESIAN COORDINATES (A.U.)
----------------------------
  NO LB      ZA    FRAG     MASS         X           Y           Z
   0 F     9.0000    0    18.998   -6.549955   -0.300559    0.131811
   1 C     6.0000    0    12.011   -0.031516    0.001792   -0.012407
   2 Cl   17.0000    0    35.453    3.306103    0.188102   -0.039642
   3 H     1.0000    0     1.008   -0.676790   -0.996761   -1.730251
   4 H     1.0000    0     1.008   -0.696115   -0.957036    1.718826
   5 H     1.0000    0     1.008   -0.879176    1.914418   -0.056243

--------------------------------
INTERNAL COORDINATES (ANGSTROEM)
--------------------------------
 F      0   0   0     0.000000000000     0.00000000     0.00000000
 C      1   0   0     3.453961235299     0.00000000     0.00000000
 Cl     2   1   0     1.768999999520   179.03581408     0.00000000
 H      2   1   3     1.105521029924    71.79383123   184.83086260
 H      2   1   4     1.104727836602    69.05142361   237.57040206
 H      2   1   5     1.107307538730    68.79193880   239.83034670

---------------------------
INTERNAL COORDINATES (A.U.)
---------------------------
 F      0   0   0     0.000000000000     0.00000000     0.00000000
 C      1   0   0     6.527040811896     0.00000000     0.00000000
 Cl     2   1   0     3.342925530000   179.03581408     0.00000000
 H      2   1   3     2.089131981847    71.79383123   184.83086260
 H      2   1   4     2.087633063697    69.05142361   237.57040206
 H      2   1   5     2.092507994226    68.79193880   239.83034670



           ************************************************************
           *        Program running with 8 parallel MPI-processes     *
           *              working on a common directory               *
           ************************************************************
 One Electron integrals                  ... done
 Pre-screening matrix                    ... done


           ************************************************************
           *        Program running with 8 parallel MPI-processes     *
           *              working on a common directory               *
           ************************************************************

Diagonalization of the overlap matrix:
Smallest eigenvalue                        ... 1.146e-02
Time for diagonalization                   ...    0.002 sec
Threshold for overlap eigenvalues          ... 1.000e-08
Number of eigenvalues below threshold      ... 0
Time for construction of square roots      ...    0.001 sec
Total time needed                          ...    0.003 sec

-------------------
DFT GRID GENERATION
-------------------

General Integration Accuracy     IntAcc      ...  4.340
Radial Grid Type                 RadialGrid  ... Gauss-Chebyshev
Angular Grid (max. acc.)         AngularGrid ... Lebedev-110
Angular grid pruning method      GridPruning ... 3 (G Style)
Weight generation scheme         WeightScheme... Becke
Basis function cutoff            BFCut       ...    1.0000e-11
Integration weight cutoff        WCut        ...    1.0000e-14
Grids for H and He will be reduced by one unit

# of grid points (after initial pruning)     ...   7622 (   0.0 sec)
# of grid points (after weights+screening)   ...   7464 (   0.0 sec)
nearest neighbour list constructed           ...    0.0 sec
Grid point re-assignment to atoms done       ...    0.0 sec
Grid point division into batches done        ...    0.0 sec
Reduced shell lists constructed in    0.0 sec

Total number of grid points                  ...     7464
Total number of batches                      ...      119
Average number of points per batch           ...       62
Average number of grid points per atom       ...     1244
Average number of shells per batch           ...    15.75 (54.31%)
Average number of basis functions per batch  ...    31.00 (50.82%)
Average number of large shells per batch     ...    11.12 (70.63%)
Average number of large basis fcns per batch ...    21.12 (68.15%)
Maximum spatial batch extension              ...  13.35, 22.97, 25.60 au
Average spatial batch extension              ...   0.90,  1.39,  1.43 au

Time for grid setup =    0.019 sec


--------------------
CPCM SOLVATION MODEL
--------------------
CPCM parameters:
  Epsilon                                         ...      78.3550
  Refrac                                          ...       1.0000
  Rsolv                                           ...       1.3000
  Surface type                                    ...    GEPOL SES
  Epsilon function type                           ...         CPCM
Solvent:                                     ... WATER
SMD-CDS solvent descriptors:
  Soln                                       ...    1.3328
  Soln25                                     ...    1.3323
  Sola                                       ...    0.0000
  Solb                                       ...    0.0000
  Solg                                       ...    0.0000
  Solc                                       ...    0.0000
  Solh                                       ...    0.0000
Radii:
 Radius for F  used is    3.2692 Bohr (=   1.7300 Ang.)
 Radius for C  used is    3.4960 Bohr (=   1.8500 Ang.)
 Radius for Cl used is    4.4975 Bohr (=   2.3800 Ang.)
 Radius for H  used is    2.2677 Bohr (=   1.2000 Ang.)
Calculating surface                               ...        done! (  0.0s)
GEPOL surface points                              ...          292
GEPOL Volume                                      ...     641.8369
GEPOL Surface-area                                ...     429.0239
Calculating surface distance matrix               ...        done! (  0.0s)
Performing Cholesky decomposition & store         ...        done! (  0.0s)
Overall time for CPCM initialization              ...                 0.0s
--------------
SCF ITERATIONS
--------------
ITER       Energy         Delta-E        Max-DP      RMS-DP      [F,P]     Damp
               ***  Starting incremental Fock matrix formation  ***
                      *** Initiating the SOSCF procedure ***
                      *** Re-Reading the Fockian *** 
                      *** Removing any level shift *** 
ITER      Energy       Delta-E        Grad      Rot      Max-DP    RMS-DP
  0   -599.42813574 -599.4281357404  0.001832  0.001832  0.008428  0.000448
               *** Restarting incremental Fock matrix formation ***
  1   -599.42825671  -0.0001209679  0.000579  0.004740  0.007095  0.000458
  2   -599.42826643  -0.0000097261  0.001201  0.000850  0.003674  0.000151
  3   -599.42827217  -0.0000057372  0.000606  0.000684  0.001305  0.000087
  4   -599.42827400  -0.0000018313  0.000037  0.000202  0.000307  0.000021
  5   -599.42827406  -0.0000000532  0.000018  0.000043  0.000068  0.000004
  6   -599.42827406  -0.0000000039  0.000014  0.000050  0.000095  0.000005
  7   -599.42827407  -0.0000000052  0.000008  0.000007  0.000016  0.000001
  8   -599.42827406   0.0000000037  0.000003  0.000007  0.000010  0.000001
                  ***Gradient check signals convergence***
              ***Rediagonalizing the Fockian in SOSCF/NRSCF***

               *****************************************************
               *                     SUCCESS                       *
               *           SCF CONVERGED AFTER   9 CYCLES          *
               *****************************************************

Setting up the final grid:

General Integration Accuracy     IntAcc      ...  4.670
Radial Grid Type                 RadialGrid  ... Gauss-Chebyshev
Angular Grid (max. acc.)         AngularGrid ... Lebedev-302
Angular grid pruning method      GridPruning ... 3 (G Style)
Weight generation scheme         WeightScheme... Becke
Basis function cutoff            BFCut       ...    1.0000e-11
Integration weight cutoff        WCut        ...    1.0000e-14
Grids for H and He will be reduced by one unit

# of grid points (after initial pruning)     ...  29404 (   0.0 sec)
# of grid points (after weights+screening)   ...  28678 (   0.0 sec)
nearest neighbour list constructed           ...    0.0 sec
Grid point re-assignment to atoms done       ...    0.0 sec
Grid point division into batches done        ...    0.1 sec
Reduced shell lists constructed in    0.1 sec

Total number of grid points                  ...    28678
Total number of batches                      ...      450
Average number of points per batch           ...       63
Average number of grid points per atom       ...     4780
Average number of shells per batch           ...    12.91 (44.53%)
Average number of basis functions per batch  ...    25.02 (41.01%)
Average number of large shells per batch     ...     9.52 (73.70%)
Average number of large basis fcns per batch ...    18.69 (74.71%)
Maximum spatial batch extension              ...  12.40, 16.88, 18.62 au
Average spatial batch extension              ...   0.60,  0.78,  0.75 au

Final grid set up in    0.1 sec
Final integration                            ... done (   0.0 sec)
Change in XC energy                          ...     0.000562038
Integrated number of electrons               ...    35.999988120
Previous integrated no of electrons          ...    36.000077957

SMD CDS free energy correction energy :                 3.34432     Kcal/mol
Total Energy after SMD CDS correction =              -599.422382514 Eh
Total Energy       :         -599.42238251 Eh          -16311.11227 eV
  Last Energy change         ...   -2.2844e-09  Tolerance :   1.0000e-08
  Last MAX-Density change    ...    3.0902e-06  Tolerance :   1.0000e-07
             **** THE GBW FILE WAS UPDATED (default_orca_scan.gbw) ****
             **** DENSITY FILE WAS UPDATED (default_orca_scan.scfp.tmp) ****
             **** ENERGY FILE WAS UPDATED (default_orca_scan.en.tmp) ****
Total SCF time: 0 days 0 hours 0 min 3 sec 


-------------------------------------------------------------------------------
                          DFT DISPERSION CORRECTION                            
                                                                               
                              DFTD3 V3.1  Rev 1                                
                          USING Becke-Johnson damping                          
-------------------------------------------------------------------------------
-------------------------   ----------------
Dispersion correction           -0.002543073
-------------------------   ----------------


-------------------------   --------------------
FINAL SINGLE POINT ENERGY      -599.424925587444
-------------------------   --------------------



           ************************************************************
           *        Program running with 8 parallel MPI-processes     *
           *              working on a common directory               *
           ************************************************************
------------------------------------------------------------------------------
                         ORCA SCF GRADIENT CALCULATION
------------------------------------------------------------------------------

Gradient of the Kohn-Sham DFT energy:
Kohn-Sham wavefunction type      ... RKS
Hartree-Fock exchange scaling    ...    0.000
Number of operators              ...    1
Number of atoms                  ...    6
Basis set dimensions             ...   61
Integral neglect threshold       ... 2.5e-11
Integral primitive cutoff        ... 2.5e-12

Nuclear repulsion gradient       ... done
One Electron Gradient            ... done
Pre-screening matrix             ... done
RI-J gradient                    ... done
Exchange-correlation gradient    ... done
Dispersion correction            ... done

------------------
CARTESIAN GRADIENT
------------------

   1   F   :   -0.010512966   -0.000641799    0.000092750
   2   C   :    0.017145801   -0.003592657    0.002568763
   3   Cl  :   -0.011389761   -0.001205256   -0.000832616
   4   H   :    0.002722235    0.002540116   -0.002873184
   5   H   :    0.002048547    0.002079649    0.001949942
   6   H   :   -0.000013855    0.000819947   -0.000905655

Difference to translation invariance:
           :   -0.0000000000   -0.0000000000    0.0000000000

Norm of the cartesian gradient     ...    0.0243358617
RMS gradient                       ...    0.0057360176
MAX gradient                       ...    0.0171458012

-------
TIMINGS
-------

Total SCF gradient time            ...        0.471 sec

One electron gradient       ....       0.005 sec  (  1.0%)
Prescreening matrices       ....       0.008 sec  (  1.7%)
RI-J Coulomb gradient       ....       0.096 sec  ( 20.5%)
XC gradient                 ....       0.038 sec  (  8.0%)
CPCM gradient               ....       0.068 sec  ( 14.4%)
   A-Matrix (El+Nuc)        ....       0.004 sec  (  0.9%)
   Potential                ....       0.064 sec  ( 13.6%)
------------------------------------------------------------------------------
                         ORCA GEOMETRY RELAXATION STEP
------------------------------------------------------------------------------

Reading the OPT-File                    .... done
Getting information on internals        .... done
Copying old internal coords+grads       .... done
Making the new internal coordinates     .... (new redundants).... done
Validating the new internal coordinates .... (new redundants).... done
Calculating the B-matrix                .... done
Calculating the G,G- and P matrices     .... done
Transforming gradient to internals      .... done
Projecting the internal gradient        .... done
Number of atoms                         ....   6
Number of internal coordinates          ....  17
Current Energy                          ....  -599.424925587 Eh
Current gradient norm                   ....     0.024335862 Eh/bohr
Maximum allowed component of the step   ....  0.300
Current trust radius                    ....  0.300
Updating the Hessian (BFGS)             .... done
Forming the augmented Hessian           .... done
Diagonalizing the augmented Hessian     .... done
Last element of RFO vector              ....  0.717927352
Lowest eigenvalues of augmented Hessian:
 -0.005848937  0.005597120  0.023866301  0.024204883  0.150507928
Length of the computed step             ....  0.969621831
Warning: the length of the step is outside the trust region - taking restricted step instead
The input lambda is                     ....    -0.005849
   iter:   1  x=   -0.008528  g=  317.307481 f(x)=     0.850166
   iter:   2  x=   -0.011972  g=  103.442037 f(x)=     0.356270
   iter:   3  x=   -0.015645  g=   37.650010 f(x)=     0.138286
   iter:   4  x=   -0.018282  g=   16.948998 f(x)=     0.044687
   iter:   5  x=   -0.019142  g=   10.649685 f(x)=     0.009159
   iter:   6  x=   -0.019207  g=    9.284706 f(x)=     0.000605
   iter:   7  x=   -0.019207  g=    9.191060 f(x)=     0.000003
   iter:   8  x=   -0.019207  g=    9.190585 f(x)=     0.000000
   iter:   9  x=   -0.019207  g=    9.190585 f(x)=     0.000000
The output lambda is                    ....    -0.019207 (9 iterations)
The final length of the internal step   ....  0.300000000
Converting the step to cartesian space:
 Initial RMS(Int)=    0.0727606875
Transforming coordinates:
 Iter   0:  RMS(Cart)=    0.0380643717 RMS(Int)=    0.0726053846
 Iter   1:  RMS(Cart)=    0.0003048156 RMS(Int)=    0.0002995839
 Iter   2:  RMS(Cart)=    0.0000053527 RMS(Int)=    0.0000054038
 Iter   3:  RMS(Cart)=    0.0000000788 RMS(Int)=    0.0000000822
Imposing constraints:
 Iter   0:  RMS(Cart)=    0.0000000005 RMS(Int)=    0.0000000000
CONVERGED
done
Storing new coordinates                 .... done

                                .--------------------.
          ----------------------|Geometry convergence|-------------------------
          Item                value                   Tolerance       Converged
          ---------------------------------------------------------------------
          Energy change      -0.0018246616            0.0000300000      NO
          RMS gradient        0.0021969489            0.0005000000      NO
          MAX gradient        0.0045975108            0.0020000000      NO
          RMS step            0.0727606875            0.0070000000      NO
          MAX step            0.1600526350            0.0100000000      NO
          ........................................................
          Max(Bonds)      0.0847      Max(Angles)    1.71
          Max(Dihed)        0.00      Max(Improp)    0.00
          ---------------------------------------------------------------------

The optimization has not yet converged - more geometry cycles are needed


    ---------------------------------------------------------------------------
                         Redundant Internal Coordinates
                            (Angstroem and degrees)

        Definition                    Value    dE/dq     Step     New-Value
    ----------------------------------------------------------------------------
     1. B(C   1,F   0)                3.4540  0.003504 -0.0847    3.3693   
     2. B(Cl  2,C   1)                1.7690 -0.011432 -0.0000    1.7690 C 
     3. B(H   3,C   1)                1.1055  0.000294 -0.0016    1.1039   
     4. B(H   3,F   0)                3.2812  0.002181 -0.0702    3.2109   
     5. B(H   4,F   0)                3.2283  0.002570 -0.0780    3.1502   
     6. B(H   4,C   1)                1.1047  0.000110 -0.0009    1.1038   
     7. B(H   5,F   0)                3.2232  0.002666 -0.0796    3.1436   
     8. B(H   5,C   1)                1.1073  0.000890 -0.0033    1.1040   
     9. A(H   3,C   1,H   4)          111.35  0.004598   -1.71    109.63   
    10. A(Cl  2,C   1,H   5)          110.69  0.001666   -0.66    110.03   
    11. A(H   3,C   1,H   5)          107.13 -0.003917    1.61    108.74   
    12. A(H   4,C   1,H   5)          107.95 -0.001964    0.85    108.80   
    13. A(F   0,C   1,H   3)           71.79 -0.000546    0.52     72.32   
    14. A(F   0,C   1,H   4)           69.05 -0.000358    0.12     69.17   
    15. A(F   0,C   1,H   5)           68.79 -0.000294    0.03     68.82   
    16. A(Cl  2,C   1,H   3)          109.17 -0.002068    0.63    109.79   
    17. A(Cl  2,C   1,H   4)          110.50  0.001586   -0.65    109.85   
    ----------------------------------------------------------------------------

         *************************************************************
         *                GEOMETRY OPTIMIZATION CYCLE   3            *
         *************************************************************
---------------------------------
CARTESIAN COORDINATES (ANGSTROEM)
---------------------------------
  F     -3.398072   -0.143426    0.076423
  C     -0.033399    0.002866   -0.014211
  Cl     1.731969    0.115944   -0.007210
  H     -0.369294   -0.546727   -0.910681
  H     -0.379130   -0.521750    0.893323
  H     -0.477074    1.013693   -0.031243

----------------------------
CARTESIAN COORDINATES (A.U.)
----------------------------
  NO LB      ZA    FRAG     MASS         X           Y           Z
   0 F     9.0000    0    18.998   -6.421426   -0.271036    0.144418
   1 C     6.0000    0    12.011   -0.063115    0.005417   -0.026855
   2 Cl   17.0000    0    35.453    3.272947    0.219102   -0.013626
   3 H     1.0000    0     1.008   -0.697864   -1.033165   -1.720938
   4 H     1.0000    0     1.008   -0.716451   -0.985965    1.688135
   5 H     1.0000    0     1.008   -0.901540    1.915603   -0.059040

--------------------------------
INTERNAL COORDINATES (ANGSTROEM)
--------------------------------
 F      0   0   0     0.000000000000     0.00000000     0.00000000
 C      1   0   0     3.369071191544     0.00000000     0.00000000
 Cl     2   1   0     1.768999999520   177.87677222     0.00000000
 H      2   1   3     1.103873361904    72.32233624   183.07599027
 H      2   1   4     1.103797873473    69.17184787   240.11249929
 H      2   1   5     1.104041971966    68.82801141   238.88502922

---------------------------
INTERNAL COORDINATES (A.U.)
---------------------------
 F      0   0   0     0.000000000000     0.00000000     0.00000000
 C      1   0   0     6.366621877703     0.00000000     0.00000000
 Cl     2   1   0     3.342925530000   177.87677222     0.00000000
 H      2   1   3     2.086018340530    72.32233624   183.07599027
 H      2   1   4     2.085875688068    69.17184787   240.11249929
 H      2   1   5     2.086336967370    68.82801141   238.88502922



           ************************************************************
           *        Program running with 8 parallel MPI-processes     *
           *              working on a common directory               *
           ************************************************************
 One Electron integrals                  ... done
 Pre-screening matrix                    ... done


           ************************************************************
           *        Program running with 8 parallel MPI-processes     *
           *              working on a common directory               *
           ************************************************************

Diagonalization of the overlap matrix:
Smallest eigenvalue                        ... 1.136e-02
Time for diagonalization                   ...    0.002 sec
Threshold for overlap eigenvalues          ... 1.000e-08
Number of eigenvalues below threshold      ... 0
Time for construction of square roots      ...    0.001 sec
Total time needed                          ...    0.003 sec

-------------------
DFT GRID GENERATION
-------------------

General Integration Accuracy     IntAcc      ...  4.340
Radial Grid Type                 RadialGrid  ... Gauss-Chebyshev
Angular Grid (max. acc.)         AngularGrid ... Lebedev-110
Angular grid pruning method      GridPruning ... 3 (G Style)
Weight generation scheme         WeightScheme... Becke
Basis function cutoff            BFCut       ...    1.0000e-11
Integration weight cutoff        WCut        ...    1.0000e-14
Grids for H and He will be reduced by one unit

# of grid points (after initial pruning)     ...   7622 (   0.0 sec)
# of grid points (after weights+screening)   ...   7465 (   0.0 sec)
nearest neighbour list constructed           ...    0.0 sec
Grid point re-assignment to atoms done       ...    0.0 sec
Grid point division into batches done        ...    0.0 sec
Reduced shell lists constructed in    0.0 sec

Total number of grid points                  ...     7465
Total number of batches                      ...      119
Average number of points per batch           ...       62
Average number of grid points per atom       ...     1244
Average number of shells per batch           ...    15.56 (53.66%)
Average number of basis functions per batch  ...    30.56 (50.10%)
Average number of large shells per batch     ...    10.56 (67.87%)
Average number of large basis fcns per batch ...    19.81 (64.83%)
Maximum spatial batch extension              ...  13.20, 23.00, 25.60 au
Average spatial batch extension              ...   0.91,  1.38,  1.41 au

Time for grid setup =    0.022 sec


--------------------
CPCM SOLVATION MODEL
--------------------
CPCM parameters:
  Epsilon                                         ...      78.3550
  Refrac                                          ...       1.0000
  Rsolv                                           ...       1.3000
  Surface type                                    ...    GEPOL SES
  Epsilon function type                           ...         CPCM
Solvent:                                     ... WATER
SMD-CDS solvent descriptors:
  Soln                                       ...    1.3328
  Soln25                                     ...    1.3323
  Sola                                       ...    0.0000
  Solb                                       ...    0.0000
  Solg                                       ...    0.0000
  Solc                                       ...    0.0000
  Solh                                       ...    0.0000
Radii:
 Radius for F  used is    3.2692 Bohr (=   1.7300 Ang.)
 Radius for C  used is    3.4960 Bohr (=   1.8500 Ang.)
 Radius for Cl used is    4.4975 Bohr (=   2.3800 Ang.)
 Radius for H  used is    2.2677 Bohr (=   1.2000 Ang.)
Calculating surface                               ...        done! (  0.0s)
GEPOL surface points                              ...          287
GEPOL Volume                                      ...     639.6589
GEPOL Surface-area                                ...     426.0412
Calculating surface distance matrix               ...        done! (  0.0s)
Performing Cholesky decomposition & store         ...        done! (  0.0s)
Overall time for CPCM initialization              ...                 0.0s
--------------
SCF ITERATIONS
--------------
ITER       Energy         Delta-E        Max-DP      RMS-DP      [F,P]     Damp
               ***  Starting incremental Fock matrix formation  ***
                      *** Initiating the SOSCF procedure ***
                      *** Re-Reading the Fockian *** 
                      *** Removing any level shift *** 
ITER      Energy       Delta-E        Grad      Rot      Max-DP    RMS-DP
  0   -599.42964932 -599.4296493210  0.002270  0.002270  0.007932  0.000466
               *** Restarting incremental Fock matrix formation ***
  1   -599.42979177  -0.0001424497  0.000618  0.004875  0.006351  0.000456
  2   -599.42980320  -0.0000114324  0.001520  0.001479  0.005418  0.000210
  3   -599.42980861  -0.0000054089  0.000807  0.000630  0.001229  0.000095
  4   -599.42981107  -0.0000024540  0.000049  0.000168  0.000271  0.000020
  5   -599.42981110  -0.0000000355  0.000064  0.000073  0.000139  0.000008
  6   -599.42981114  -0.0000000363  0.000019  0.000066  0.000080  0.000007
  7   -599.42981115  -0.0000000098  0.000013  0.000013  0.000019  0.000001
  8   -599.42981115   0.0000000003  0.000003  0.000009  0.000010  0.000001
                  ***Gradient check signals convergence***
              ***Rediagonalizing the Fockian in SOSCF/NRSCF***

               *****************************************************
               *                     SUCCESS                       *
               *           SCF CONVERGED AFTER   9 CYCLES          *
               *****************************************************

Setting up the final grid:

General Integration Accuracy     IntAcc      ...  4.670
Radial Grid Type                 RadialGrid  ... Gauss-Chebyshev
Angular Grid (max. acc.)         AngularGrid ... Lebedev-302
Angular grid pruning method      GridPruning ... 3 (G Style)
Weight generation scheme         WeightScheme... Becke
Basis function cutoff            BFCut       ...    1.0000e-11
Integration weight cutoff        WCut        ...    1.0000e-14
Grids for H and He will be reduced by one unit

# of grid points (after initial pruning)     ...  29404 (   0.0 sec)
# of grid points (after weights+screening)   ...  28675 (   0.0 sec)
nearest neighbour list constructed           ...    0.0 sec
Grid point re-assignment to atoms done       ...    0.0 sec
Grid point division into batches done        ...    0.1 sec
Reduced shell lists constructed in    0.1 sec

Total number of grid points                  ...    28675
Total number of batches                      ...      451
Average number of points per batch           ...       63
Average number of grid points per atom       ...     4779
Average number of shells per batch           ...    13.26 (45.72%)
Average number of basis functions per batch  ...    25.91 (42.48%)
Average number of large shells per batch     ...     9.64 (72.69%)
Average number of large basis fcns per batch ...    18.78 (72.46%)
Maximum spatial batch extension              ...  12.40, 16.88, 16.88 au
Average spatial batch extension              ...   0.60,  0.77,  0.75 au

Final grid set up in    0.1 sec
Final integration                            ... done (   0.0 sec)
Change in XC energy                          ...     0.000566426
Integrated number of electrons               ...    35.999990609
Previous integrated no of electrons          ...    36.000145476

SMD CDS free energy correction energy :                 3.28801     Kcal/mol
Total Energy after SMD CDS correction =              -599.424004940 Eh
Total Energy       :         -599.42400494 Eh          -16311.15642 eV
  Last Energy change         ...   -1.9629e-09  Tolerance :   1.0000e-08
  Last MAX-Density change    ...    3.2645e-06  Tolerance :   1.0000e-07
             **** THE GBW FILE WAS UPDATED (default_orca_scan.gbw) ****
             **** DENSITY FILE WAS UPDATED (default_orca_scan.scfp.tmp) ****
             **** ENERGY FILE WAS UPDATED (default_orca_scan.en.tmp) ****
Total SCF time: 0 days 0 hours 0 min 3 sec 


-------------------------------------------------------------------------------
                          DFT DISPERSION CORRECTION                            
                                                                               
                              DFTD3 V3.1  Rev 1                                
                          USING Becke-Johnson damping                          
-------------------------------------------------------------------------------
-------------------------   ----------------
Dispersion correction           -0.002573416
-------------------------   ----------------


-------------------------   --------------------
FINAL SINGLE POINT ENERGY      -599.426578355944
-------------------------   --------------------



           ************************************************************
           *        Program running with 8 parallel MPI-processes     *
           *              working on a common directory               *
           ************************************************************
------------------------------------------------------------------------------
                         ORCA SCF GRADIENT CALCULATION
------------------------------------------------------------------------------

Gradient of the Kohn-Sham DFT energy:
Kohn-Sham wavefunction type      ... RKS
Hartree-Fock exchange scaling    ...    0.000
Number of operators              ...    1
Number of atoms                  ...    6
Basis set dimensions             ...   61
Integral neglect threshold       ... 2.5e-11
Integral primitive cutoff        ... 2.5e-12

Nuclear repulsion gradient       ... done
[...]
  Solb                                       ...    0.0000
  Solg                                       ...    0.0000
  Solc                                       ...    0.0000
  Solh                                       ...    0.0000
Radii:
 Radius for F  used is    3.2692 Bohr (=   1.7300 Ang.)
 Radius for C  used is    3.4960 Bohr (=   1.8500 Ang.)
 Radius for Cl used is    4.4975 Bohr (=   2.3800 Ang.)
 Radius for H  used is    2.2677 Bohr (=   1.2000 Ang.)
Calculating surface                               ...        done! (  0.0s)
GEPOL surface points                              ...          244
GEPOL Volume                                      ...     646.2418
GEPOL Surface-area                                ...     417.0661
Calculating surface distance matrix               ...        done! (  0.0s)
Performing Cholesky decomposition & store         ...        done! (  0.0s)
Overall time for CPCM initialization              ...                 0.0s
--------------
SCF ITERATIONS
--------------
ITER       Energy         Delta-E        Max-DP      RMS-DP      [F,P]     Damp
               ***  Starting incremental Fock matrix formation  ***
                      *** Initiating the SOSCF procedure ***
                      *** Re-Reading the Fockian *** 
                      *** Removing any level shift *** 
ITER      Energy       Delta-E        Grad      Rot      Max-DP    RMS-DP
  0   -599.47962892 -599.4796289227  0.000171  0.000171  0.000312  0.000019
               *** Restarting incremental Fock matrix formation ***
  1   -599.47962947  -0.0000005426  0.000050  0.000092  0.000141  0.000011
  2   -599.47962947  -0.0000000040  0.000074  0.000056  0.000114  0.000005
  3   -599.47962951  -0.0000000376  0.000013  0.000020  0.000039  0.000002
  4   -599.47962951  -0.0000000001  0.000010  0.000009  0.000028  0.000001
                  ***Gradient check signals convergence***
              ***Rediagonalizing the Fockian in SOSCF/NRSCF***

               *****************************************************
               *                     SUCCESS                       *
               *           SCF CONVERGED AFTER   5 CYCLES          *
               *****************************************************

Setting up the final grid:

General Integration Accuracy     IntAcc      ...  4.670
Radial Grid Type                 RadialGrid  ... Gauss-Chebyshev
Angular Grid (max. acc.)         AngularGrid ... Lebedev-302
Angular grid pruning method      GridPruning ... 3 (G Style)
Weight generation scheme         WeightScheme... Becke
Basis function cutoff            BFCut       ...    1.0000e-11
Integration weight cutoff        WCut        ...    1.0000e-14
Grids for H and He will be reduced by one unit

# of grid points (after initial pruning)     ...  29404 (   0.0 sec)
# of grid points (after weights+screening)   ...  28595 (   0.0 sec)
nearest neighbour list constructed           ...    0.0 sec
Grid point re-assignment to atoms done       ...    0.0 sec
Grid point division into batches done        ...    0.1 sec
Reduced shell lists constructed in    0.1 sec

Total number of grid points                  ...    28595
Total number of batches                      ...      450
Average number of points per batch           ...       63
Average number of grid points per atom       ...     4766
Average number of shells per batch           ...    15.62 (53.86%)
Average number of basis functions per batch  ...    31.59 (51.78%)
Average number of large shells per batch     ...    12.79 (81.90%)
Average number of large basis fcns per batch ...    25.83 (81.77%)
Maximum spatial batch extension              ...  16.65, 16.05, 16.05 au
Average spatial batch extension              ...   0.58,  0.67,  0.64 au

Final grid set up in    0.1 sec
Final integration                            ... done (   0.0 sec)
Change in XC energy                          ...     0.000573114
Integrated number of electrons               ...    36.000018479
Previous integrated no of electrons          ...    35.999540104

SMD CDS free energy correction energy :                 3.03688     Kcal/mol
Total Energy after SMD CDS correction =              -599.474216821 Eh

----------------
TOTAL SCF ENERGY
----------------

Total Energy       :         -599.47421682 Eh          -16312.52275 eV

Components:
Nuclear Repulsion  :           79.52693976 Eh            2164.03805 eV
Electronic Energy  :         -679.00115658 Eh          -18476.56080 eV
One Electron Energy:         -995.21997975 Eh          -27081.31244 eV
Two Electron Energy:          316.21882317 Eh            8604.75164 eV
CPCM Dielectric    :           -0.09670858 Eh              -2.63157 eV
SMD CDS (Gcds)     :            0.00483957 Eh               0.13169 eV

Virial components:
Potential Energy   :        -1197.03772665 Eh          -32573.05252 eV
Kinetic Energy     :          597.56350983 Eh           16260.52977 eV
Virial Ratio       :            2.00319750


DFT components:
N(Alpha)           :       18.000009239730 electrons
N(Beta)            :       18.000009239730 electrons
N(Total)           :       36.000018479459 electrons
E(X)               :      -43.875317498662 Eh       
E(C)               :       -1.289426566767 Eh       
E(XC)              :      -45.164744065429 Eh       
DFET-embed. en.    :        0.000000000000 Eh       
CPCM Solvation Model Properties:
Surface-charge          :            0.99053232
Charge-correction       :           -0.00152727 Eh              -0.04156 eV
Free-energy (cav+disp)  :            0.00336403 Eh               0.09154 eV
Corrected G(solv)       :         -599.47238006 Eh          -16312.47277 eV

---------------
SCF CONVERGENCE
---------------

  Last Energy change         ...   -1.9272e-09  Tolerance :   1.0000e-08
  Last MAX-Density change    ...    4.3376e-06  Tolerance :   1.0000e-07
  Last RMS-Density change    ...    4.0707e-07  Tolerance :   5.0000e-09
  Last Orbital Gradient      ...    2.0932e-06  Tolerance :   1.0000e-05
  Last Orbital Rotation      ...    2.9072e-06  Tolerance :   1.0000e-05

             **** THE GBW FILE WAS UPDATED (default_orca_scan.gbw) ****
             **** DENSITY FILE WAS UPDATED (default_orca_scan.scfp.tmp) ****
             **** ENERGY FILE WAS UPDATED (default_orca_scan.en.tmp) ****
----------------
ORBITAL ENERGIES
----------------

  NO   OCC          E(Eh)            E(eV) 
   0   2.0000    -100.452315     -2733.4465 
   1   2.0000     -24.223781      -659.1626 
   2   2.0000      -9.938163      -270.4312 
   3   2.0000      -8.983577      -244.4556 
   4   2.0000      -6.808290      -185.2630 
   5   2.0000      -6.807761      -185.2486 
   6   2.0000      -6.807757      -185.2485 
   7   2.0000      -1.043549       -28.3964 
   8   2.0000      -0.591898       -16.1064 
   9   2.0000      -0.545874       -14.8540 
  10   2.0000      -0.410906       -11.1813 
  11   2.0000      -0.391446       -10.6518 
  12   2.0000      -0.391355       -10.6493 
  13   2.0000      -0.264299        -7.1919 
  14   2.0000      -0.264219        -7.1898 
  15   2.0000      -0.131516        -3.5787 
  16   2.0000      -0.129736        -3.5303 
  17   2.0000      -0.129592        -3.5264 
  18   0.0000       0.073740         2.0066 
  19   0.0000       0.109816         2.9882 
  20   0.0000       0.128109         3.4860 
  21   0.0000       0.128724         3.5028 
  22   0.0000       0.428909        11.6712 
  23   0.0000       0.430580        11.7167 
  24   0.0000       0.433885        11.8066 
  25   0.0000       0.542521        14.7627 
  26   0.0000       0.609224        16.5778 
  27   0.0000       0.613616        16.6973 
  28   0.0000       0.613713        16.7000 
  29   0.0000       0.670192        18.2368 
  30   0.0000       0.881219        23.9792 
  31   0.0000       0.881288        23.9811 
  32   0.0000       0.885477        24.0951 
  33   0.0000       0.885584        24.0980 
  34   0.0000       0.892550        24.2875 
  35   0.0000       0.956422        26.0256 
  36   0.0000       0.957160        26.0456 
  37   0.0000       1.027276        27.9536 
  38   0.0000       1.027692        27.9649 
  39   0.0000       1.076145        29.2834 
  40   0.0000       1.104163        30.0458 
  41   0.0000       1.308608        35.6090 
  42   0.0000       1.309096        35.6223 
  43   0.0000       1.472406        40.0662 
  44   0.0000       1.634311        44.4719 
  45   0.0000       1.679710        45.7072 
  46   0.0000       1.681952        45.7683 
  47   0.0000       1.815499        49.4022 
  48   0.0000       1.816844        49.4388 
  49   0.0000       1.890519        51.4436 
  50   0.0000       2.146620        58.4125 
  51   0.0000       2.270667        61.7880 
  52   0.0000       2.271164        61.8015 
  53   0.0000       2.573508        70.0287 
  54   0.0000       2.760045        75.1046 
  55   0.0000       2.761792        75.1522 
  56   0.0000       3.028236        82.4025 
  57   0.0000       3.029891        82.4475 
  58   0.0000       3.257227        88.6337 
  59   0.0000       3.257760        88.6482 
  60   0.0000       3.650670        99.3398 

                    ********************************
                    * MULLIKEN POPULATION ANALYSIS *
                    ********************************

-----------------------
MULLIKEN ATOMIC CHARGES
-----------------------
   0 F :   -0.302011
   1 C :    0.174875
   2 Cl:   -0.903187
   3 H :    0.010451
   4 H :    0.010255
   5 H :    0.009618
Sum of atomic charges:   -1.0000000

--------------------------------
MULLIKEN REDUCED ORBITAL CHARGES
--------------------------------
  0 F s       :     3.919355  s :     3.919355
      pz      :     1.944088  p :     5.376356
      px      :     1.489715
      py      :     1.942554
      dz2     :     0.000826  d :     0.006301
      dxz     :     0.001503
      dyz     :     0.000005
      dx2y2   :     0.002464
      dxy     :     0.001503
  1 C s       :     3.052122  s :     3.052122
      pz      :     1.052168  p :     2.718730
      px      :     0.611733
      py      :     1.054829
      dz2     :     0.008341  d :     0.054273
      dxz     :     0.012839
      dyz     :     0.003643
      dx2y2   :     0.017371
      dxy     :     0.012079
  2 Cls       :     5.996646  s :     5.996646
      pz      :     3.987189  p :    11.906430
      px      :     3.932988
      py      :     3.986253
      dz2     :     0.000013  d :     0.000111
      dxz     :     0.000030
      dyz     :     0.000002
      dx2y2   :     0.000033
      dxy     :     0.000033
  3 H s       :     0.966918  s :     0.966918
      pz      :     0.010598  p :     0.022632
      px      :     0.005036
      py      :     0.006998
  4 H s       :     0.967097  s :     0.967097
      pz      :     0.010630  p :     0.022648
      px      :     0.005181
      py      :     0.006836
  5 H s       :     0.967547  s :     0.967547
      pz      :     0.005467  p :     0.022835
      px      :     0.004618
      py      :     0.012751


                     *******************************
                     * LOEWDIN POPULATION ANALYSIS *
                     *******************************

----------------------
LOEWDIN ATOMIC CHARGES
----------------------
   0 F :   -0.179794
   1 C :    0.065171
   2 Cl:   -0.900168
   3 H :    0.005289
   4 H :    0.005035
   5 H :    0.004467

-------------------------------
LOEWDIN REDUCED ORBITAL CHARGES
-------------------------------
  0 F s       :     3.757343  s :     3.757343
      pz      :     1.941731  p :     5.412680
      px      :     1.530489
      py      :     1.940460
      dz2     :     0.001407  d :     0.009771
      dxz     :     0.002075
      dyz     :     0.000005
      dx2y2   :     0.004193
      dxy     :     0.002091
  1 C s       :     2.886889  s :     2.886889
      pz      :     1.096974  p :     2.917873
      px      :     0.723293
      py      :     1.097607
      dz2     :     0.020649  d :     0.130067
      dxz     :     0.030870
      dyz     :     0.010407
      dx2y2   :     0.039839
      dxy     :     0.028303
  2 Cls       :     5.993433  s :     5.993433
      pz      :     3.989870  p :    11.906636
      px      :     3.927666
      py      :     3.989101
      dz2     :     0.000008  d :     0.000099
      dxz     :     0.000033
      dyz     :     0.000003
      dx2y2   :     0.000018
      dxy     :     0.000037
  3 H s       :     0.929564  s :     0.929564
      pz      :     0.032372  p :     0.065147
      px      :     0.014200
      py      :     0.018575
  4 H s       :     0.929735  s :     0.929735
      pz      :     0.032553  p :     0.065231
      px      :     0.014664
      py      :     0.018014
  5 H s       :     0.929889  s :     0.929889
      pz      :     0.012434  p :     0.065644
      px      :     0.012529
      py      :     0.040681


                      *****************************
                      * MAYER POPULATION ANALYSIS *
                      *****************************

  NA   - Mulliken gross atomic population
  ZA   - Total nuclear charge
  QA   - Mulliken gross atomic charge
  VA   - Mayer's total valence
  BVA  - Mayer's bonded valence
  FA   - Mayer's free valence

  ATOM       NA         ZA         QA         VA         BVA        FA
  0 F      9.3020     9.0000    -0.3020     1.0092     1.0092     0.0000
  1 C      5.8251     6.0000     0.1749     3.8801     3.8801     0.0000
  2 Cl    17.9032    17.0000    -0.9032     0.1909     0.1909     0.0000
  3 H      0.9895     1.0000     0.0105     1.0248     1.0248     0.0000
  4 H      0.9897     1.0000     0.0103     1.0257     1.0257     0.0000
  5 H      0.9904     1.0000     0.0096     1.0288     1.0288     0.0000

  Mayer bond orders larger than 0.1
B(  0-F ,  1-C ) :   0.9541 B(  1-C ,  3-H ) :   0.9665 B(  1-C ,  4-H ) :   0.9662 
B(  1-C ,  5-H ) :   0.9652 

-------
TIMINGS
-------

Total SCF time: 0 days 0 hours 0 min 1 sec 

Total time                  ....       1.956 sec
Sum of individual times     ....       1.810 sec  ( 92.5%)

Fock matrix formation       ....       1.682 sec  ( 86.0%)
  Split-RI-J                ....       0.504 sec  ( 30.0% of F)
  XC integration            ....       0.042 sec  (  2.5% of F)
    Basis function eval.    ....       0.012 sec  ( 28.1% of XC)
    Density eval.           ....       0.005 sec  ( 10.9% of XC)
    XC-Functional eval.     ....       0.005 sec  ( 12.1% of XC)
    XC-Potential eval.      ....       0.005 sec  ( 11.1% of XC)
Diagonalization             ....       0.000 sec  (  0.0%)
Density matrix formation    ....       0.000 sec  (  0.0%)
Population analysis         ....       0.002 sec  (  0.1%)
Initial guess               ....       0.003 sec  (  0.1%)
Orbital Transformation      ....       0.000 sec  (  0.0%)
Orbital Orthonormalization  ....       0.001 sec  (  0.0%)
DIIS solution               ....       0.000 sec  (  0.0%)
SOSCF solution              ....       0.001 sec  (  0.1%)
Grid generation             ....       0.121 sec  (  6.2%)


-------------------------------------------------------------------------------
                          DFT DISPERSION CORRECTION                            
                                                                               
                              DFTD3 V3.1  Rev 1                                
                          USING Becke-Johnson damping                          
-------------------------------------------------------------------------------
The PBE functional is recognized
Active option DFTDOPT                   ...         4   

molecular C6(AA) [au] = 469.879184 


            DFT-D V3
 parameters
 s6 scaling factor         :     1.0000 
 a1 scaling factor         :     0.4289 
 s8 scaling factor         :     0.7875 
 a2 scaling factor         :     4.4407 
 ad hoc parameters k1-k3   :    16.0000     1.3333    -4.0000 

 Edisp/kcal,au: -1.504452987120  -0.002397498187 
 E6   /kcal   :  -1.066784683 
 E8   /kcal   :  -0.437668304 
 % E8         :  29.091524121 

-------------------------   ----------------
Dispersion correction           -0.002397498
-------------------------   ----------------


-------------------------   --------------------
FINAL SINGLE POINT ENERGY      -599.476614319124
-------------------------   --------------------

                                *** OPTIMIZATION RUN DONE ***

Storing optimized geometry in default_orca_scan.010.xyz ... done
Storing optimized geometry and energy in default_orca_scan.xyzall ... done
Storing actual gbw-file in default_orca_scan.010.gbw ... done

                            ***************************************
                            *     ORCA property calculations      *
                            ***************************************

                                    ---------------------
                                    Active property flags
                                    ---------------------
   (+) Dipole Moment


------------------------------------------------------------------------------
                       ORCA ELECTRIC PROPERTIES CALCULATION
------------------------------------------------------------------------------

Dipole Moment Calculation                       ... on
Quadrupole Moment Calculation                   ... off
Polarizability Calculation                      ... off
GBWName                                         ... default_orca_scan.gbw
Electron density file                           ... default_orca_scan.scfp.tmp
The origin for moment calculation is the CENTER OF MASS  = ( 0.576390,  0.084743 -0.000348)

-------------
DIPOLE MOMENT
-------------
                                X             Y             Z
Electronic contribution:      0.23093       0.05248       0.01035
Nuclear contribution   :     -2.69035      -0.21843      -0.00260
                        -----------------------------------------
Total Dipole Moment    :     -2.45942      -0.16595       0.00775
                        -----------------------------------------
Magnitude (a.u.)       :      2.46502
Magnitude (Debye)      :      6.26558



--------------------
Rotational spectrum 
--------------------
 
Rotational constants in cm-1:     5.178556     0.056187     0.056187 
Rotational constants in MHz : 155249.198219  1684.448416  1684.435760 

 Dipole components along the rotational axes: 
x,y,z [a.u.] :     2.465003    -0.007360     0.005534 
x,y,z [Debye]:     6.265541    -0.018707     0.014066 

 
                   **** RELAXED SURFACE SCAN DONE ***

                    SUMMARY OF THE CALCULATED SURFACE

----------------------------
RELAXED SURFACE SCAN RESULTS
----------------------------

Column   1: NONAME

The Calculated Surface using the 'Actual Energy'
   1.76900000 -599.43737274
   1.93566667 -599.43774724
   2.10233333 -599.43423286
   2.26900000 -599.44146139
   2.43566667 -599.45597897
   2.60233333 -599.46655208
   2.76900000 -599.47275394
   2.93566667 -599.47578089
   3.10233333 -599.47677881
   3.26900000 -599.47661432

The Calculated Surface using the SCF energy
   1.76900000 -599.43450520
   1.93566667 -599.43488961
   2.10233333 -599.43136134
   2.26900000 -599.43861353
   2.43566667 -599.45314852
   2.60233333 -599.46377147
   2.76900000 -599.47004529
   2.93566667 -599.47316096
   3.10233333 -599.47426360
   3.26900000 -599.47421682


Timings for individual modules:

Sum of individual times         ...      409.924 sec (=   6.832 min)
GTO integral calculation        ...       61.198 sec (=   1.020 min)  14.9 %
SCF iterations                  ...      275.836 sec (=   4.597 min)  67.3 %
SCF Gradient evaluation         ...       70.290 sec (=   1.172 min)  17.1 %
Geometry relaxation             ...        2.599 sec (=   0.043 min)   0.6 %
                             ****ORCA TERMINATED NORMALLY****
TOTAL RUN TIME: 0 days 0 hours 7 minutes 0 seconds 13 msec
