
                                 *****************
                                 * O   R   C   A *
                                 *****************

           --- An Ab Initio, DFT and Semiempirical electronic structure package ---

                  #######################################################
                  #                        -***-                        #
                  #          Department of theory and spectroscopy      #
                  #               Directorship: Frank Neese             #
                  #        Max Planck Institute fuer Kohlenforschung    #
                  #                Kaiser Wilhelm Platz 1               #
                  #                 D-45470 Muelheim/Ruhr               #
                  #                      Germany                        #
                  #                                                     #
                  #                  All rights reserved                #
                  #                        -***-                        #
                  #######################################################


                         Program Version 4.1.1  - RELEASE  -


 With contributions from (in alphabetic order):
   Daniel Aravena         : Magnetic Properties
   Michael Atanasov       : Ab Initio Ligand Field Theory
   Alexander A. Auer      : GIAO ZORA
   Ute Becker             : Parallelization
   Giovanni Bistoni       : ED, Open-shell LED
   Martin Brehm           : Molecular dynamics
   Dmytro Bykov           : SCF Hessian
   Vijay G. Chilkuri      : MRCI spin determinant printing
   Dipayan Datta          : RHF DLPNO-CCSD density
   Achintya Kumar Dutta   : EOM-CC, STEOM-CC
   Dmitry Ganyushin       : Spin-Orbit,Spin-Spin,Magnetic field MRCI
   Miquel Garcia          : C-PCM Hessian
   Yang Guo               : DLPNO-NEVPT2, CIM, IAO-localization
   Andreas Hansen         : Spin unrestricted coupled pair/coupled cluster methods
   Benjamin Helmich-Paris : CASSCF linear response (MC-RPA)
   Lee Huntington         : MR-EOM, pCC
   Robert Izsak           : Overlap fitted RIJCOSX, COSX-SCS-MP3, EOM
   Christian Kollmar      : KDIIS, OOCD, Brueckner-CCSD(T), CCSD density
   Simone Kossmann        : Meta GGA functionals, TD-DFT gradient, OOMP2, MP2 Hessian
   Martin Krupicka        : AUTO-CI
   Lucas Lang             : DCDCAS
   Dagmar Lenk            : GEPOL surface, SMD
   Dimitrios Liakos       : Extrapolation schemes; parallel MDCI
   Dimitrios Manganas     : ROCIS; embedding schemes
   Dimitrios Pantazis     : SARC Basis sets
   Taras Petrenko         : DFT Hessian,TD-DFT gradient, ASA, ECA, R-Raman, ABS, FL, XAS/XES, NRVS
   Peter Pinski           : DLPNO-MP2, DLPNO-MP2 Gradient
   Christoph Reimann      : Effective Core Potentials
   Marius Retegan         : Local ZFS, SOC
   Christoph Riplinger    : Optimizer, TS searches, QM/MM, DLPNO-CCSD(T), (RO)-DLPNO pert. Triples
   Tobias Risthaus        : Range-separated hybrids, TD-DFT gradient, RPA, STAB
   Michael Roemelt        : Restricted open shell CIS
   Masaaki Saitow         : Open-shell DLPNO
   Barbara Sandhoefer     : DKH picture change effects
   Avijit Sen             : IP-ROCIS
   Kantharuban Sivalingam : CASSCF convergence, NEVPT2, FIC-MRCI
   Bernardo de Souza      : ESD, SOC TD-DFT
   Georgi Stoychev        : AutoAux, RI-MP2 NMR
   Willem Van den Heuvel  : Paramagnetic NMR
   Boris Wezisla          : Elementary symmetry handling
   Frank Wennmohs         : Technical directorship


 We gratefully acknowledge several colleagues who have allowed us to
 interface, adapt or use parts of their codes:
   Stefan Grimme, W. Hujo, H. Kruse,             : VdW corrections, initial TS optimization,
                  C. Bannwarth                     DFT functionals, gCP, sTDA/sTD-DF
   Ed Valeev                                     : LibInt (2-el integral package), F12 methods
   Garnet Chan, S. Sharma, J. Yang, R. Olivares  : DMRG
   Ulf Ekstrom                                   : XCFun DFT Library
   Mihaly Kallay                                 : mrcc  (arbitrary order and MRCC methods)
   Andreas Klamt, Michael Diedenhofen            : otool_cosmo (COSMO solvation model)
   Jiri Pittner, Ondrej Demel                    : Mk-CCSD
   Frank Weinhold                                : gennbo (NPA and NBO analysis)
   Christopher J. Cramer and Donald G. Truhlar   : smd solvation model
   Lars Goerigk                                  : TD-DFT with DH, B97 family of functionals
   V. Asgeirsson, H. Jonsson                     : NEB implementation
   FAccTs GmbH                                   : IRC, NEB, NEB-TS, Multilevel


 Your calculation uses the libint2 library for the computation of 2-el integrals
 For citations please refer to: http://libint.valeyev.net

 This ORCA versions uses:
   CBLAS   interface :  Fast vector & matrix operations
   LAPACKE interface :  Fast linear algebra routines
   SCALAPACK package :  Parallel linear algebra routines


Your calculation utilizes the atom-pairwise dispersion correction
with the Becke-Johnson damping scheme (D3BJ)
Cite in your paper:
S.Grimme, S.Ehrlich, L.Goerigk, J Comput Chem, (2011), 32, 1456–1465 
S.Grimme, J.Antony, S.Ehrlich and H.Krieg, J.Chem.Phys., 132, (2010), 154104 
   

Your calculation utilizes the SMD solvation module
Please cite in your paper:
A.V. Marenich, C.J. Cramer, D.G. Truhlar J. Phys. Chem. B, 113, (2009), 6378 

----- Orbital basis set information -----
Your calculation utilizes the basis: def2-SVP
   F. Weigend and R. Ahlrichs, Phys. Chem. Chem. Phys. 7, 3297 (2005).

----- AuxJ basis set information -----
Your calculation utilizes the auxiliary basis: def2/J
   F. Weigend, Phys. Chem. Chem. Phys. 8, 1057 (2006).

================================================================================
                                        WARNINGS
                       Please study these warnings very carefully!
================================================================================


WARNING: Geometry Optimization
  ===> : Switching off AutoStart
         For restart on a previous wavefunction, please use MOREAD

INFO   : the flag for use of LIBINT has been found!

================================================================================
                                       INPUT FILE
================================================================================
NAME = get_orca_ts_guess_coarse_TS_orca_opt.inp
|  1> ! OptTS Freq PBE0 RIJCOSX D3BJ def2-SVP def2/J PAL8
|  2> %cpcm
|  3>  smd true
|  4>  SMDsolvent "water"
|  5>  end
|  6> %geom
|  7> Calc_Hess true
|  8> Recalc_Hess 40
|  9> Trust 0.2
| 10> MaxIter 100
| 11> end
| 12> %geom
| 13> modify_internal
| 14> { B 2 1 A } end
| 15> end
| 16> %scf 
| 17> maxiter 250 
| 18> end
| 19> % maxcore 4000
| 20> *xyz -1 1
| 21> F	-2.510361	-0.119585	0.023177
| 22> C	-0.391839	-0.011242	-0.00248
| 23> Cl	1.705992	0.126206	-0.006898
| 24> H	-0.531932	-0.572345	-0.929513
| 25> H	-0.538285	-0.549233	0.936774
| 26> H	-0.658575	1.046799	-0.014659
| 27> *
| 28> 
| 29>                          ****END OF INPUT****
================================================================================

                       *****************************
                       * Geometry Optimization Run *
                       *****************************

Geometry optimization settings:
Update method            Update   .... Bofill
Choice of coordinates    CoordSys .... Z-matrix Internals
Initial Hessian          InHess   .... Almoef's Model

Convergence Tolerances:
Energy Change            TolE     ....  5.0000e-06 Eh
Max. Gradient            TolMAXG  ....  3.0000e-04 Eh/bohr
RMS Gradient             TolRMSG  ....  1.0000e-04 Eh/bohr
Max. Displacement        TolMAXD  ....  4.0000e-03 bohr
RMS Displacement         TolRMSD  ....  2.0000e-03 bohr

------------------------------------------------------------------------------
                        ORCA OPTIMIZATION COORDINATE SETUP
------------------------------------------------------------------------------

The optimization will be done in new redundant internal coordinates
Making redundant internal coordinates   ...  (new redundants) Bond   2,  1 is already included
done
Following TS mode number                ...     0
Evaluating the initial hessian          ...  (Is done on the fly) done
Evaluating the coordinates              ...  done
Calculating the B-matrix                .... done
Calculating the G-matrix                .... done
Diagonalizing the G-matrix              .... done
The first mode is                       ....    5
The number of degrees of freedom        ....   12

    -----------------------------------------------------------------
                    Redundant Internal Coordinates


    -----------------------------------------------------------------
         Definition                    Initial Value    d2E/dq (diagonal element)
    -----------------------------------------------------------------
      1. B(C   1,F   0)                  2.1214         0.000000   
      2. B(Cl  2,C   1)                  2.1023         0.000000   
      3. B(H   3,F   0)                  2.2421         0.000000   
      4. B(H   3,C   1)                  1.0926         0.000000   
      5. B(H   4,C   1)                  1.0923         0.000000   
      6. B(H   4,F   0)                  2.2155         0.000000   
      7. B(H   5,F   0)                  2.1888         0.000000   
      8. B(H   5,C   1)                  1.0912         0.000000   
      9. A(Cl  2,C   1,H   4)           99.6596         0.000000   
     10. A(H   3,C   1,H   4)          117.3515         0.000000   
     11. A(Cl  2,C   1,H   5)          100.3990         0.000000   
     12. A(H   3,C   1,H   5)          117.2008         0.000000   
     13. A(H   4,C   1,H   5)          117.0257         0.000000   
     14. A(F   0,C   1,H   3)           81.7204         0.000000   
     15. A(F   0,C   1,H   4)           80.2446         0.000000   
     16. A(F   0,C   1,H   5)           78.7874         0.000000   
     17. A(Cl  2,C   1,H   3)           99.1913         0.000000   
    -----------------------------------------------------------------

Number of atoms                         .... 6
Number of degrees of freedom            .... 17

         *************************************************************
         *                GEOMETRY OPTIMIZATION CYCLE   1            *
         *************************************************************
---------------------------------
CARTESIAN COORDINATES (ANGSTROEM)
---------------------------------
  F     -2.510361   -0.119585    0.023177
  C     -0.391839   -0.011242   -0.002480
  Cl     1.705992    0.126206   -0.006898
  H     -0.531932   -0.572345   -0.929513
  H     -0.538285   -0.549233    0.936774
  H     -0.658575    1.046799   -0.014659

----------------------------
CARTESIAN COORDINATES (A.U.)
----------------------------
  NO LB      ZA    FRAG     MASS         X           Y           Z
   0 F     9.0000    0    18.998   -4.743895   -0.225983    0.043798
   1 C     6.0000    0    12.011   -0.740468   -0.021244   -0.004687
   2 Cl   17.0000    0    35.453    3.223858    0.238495   -0.013035
   3 H     1.0000    0     1.008   -1.005206   -1.081575   -1.756525
   4 H     1.0000    0     1.008   -1.017211   -1.037900    1.770246
   5 H     1.0000    0     1.008   -1.244526    1.978163   -0.027701

--------------------------------
INTERNAL COORDINATES (ANGSTROEM)
--------------------------------
 F      0   0   0     0.000000000000     0.00000000     0.00000000
 C      1   0   0     2.121445722092     0.00000000     0.00000000
 Cl     2   1   0     2.102333554883   178.99908634     0.00000000
 H      2   1   3     1.092635716214    81.72038704   204.33817320
 H      2   1   4     1.092281476321    80.24458800   240.25649157
 H      2   1   5     1.091213626848    78.78740028   239.72765534

---------------------------
INTERNAL COORDINATES (A.U.)
---------------------------
 F      0   0   0     0.000000000000     0.00000000     0.00000000
 C      1   0   0     4.008951422732     0.00000000     0.00000000
 Cl     2   1   0     3.972834660883   178.99908634     0.00000000
 H      2   1   3     2.064782267786    81.72038704   204.33817320
 H      2   1   4     2.064112851401    80.24458800   240.25649157
 H      2   1   5     2.062094908345    78.78740028   239.72765534

---------------------
BASIS SET INFORMATION
---------------------
There are 4 groups of distinct atoms

 Group   1 Type F   : 7s4p1d contracted to 3s2p1d pattern {511/31/1}
 Group   2 Type C   : 7s4p1d contracted to 3s2p1d pattern {511/31/1}
 Group   3 Type Cl  : 10s7p1d contracted to 4s3p1d pattern {5311/511/1}
 Group   4 Type H   : 4s1p contracted to 2s1p pattern {31/1}

Atom   0F    basis set group =>   1
Atom   1C    basis set group =>   2
Atom   2Cl   basis set group =>   3
Atom   3H    basis set group =>   4
Atom   4H    basis set group =>   4
Atom   5H    basis set group =>   4
-------------------------------
AUXILIARY BASIS SET INFORMATION
-------------------------------
There are 4 groups of distinct atoms

 Group   1 Type F   : 12s5p4d2f1g contracted to 6s4p3d1f1g pattern {711111/2111/211/2/1}
 Group   2 Type C   : 12s5p4d2f1g contracted to 6s4p3d1f1g pattern {711111/2111/211/2/1}
 Group   3 Type Cl  : 14s5p5d2f1g contracted to 8s4p3d1f1g pattern {71111111/2111/311/2/1}
 Group   4 Type H   : 5s2p1d contracted to 3s1p1d pattern {311/2/1}

Atom   0F    basis set group =>   1
Atom   1C    basis set group =>   2
Atom   2Cl   basis set group =>   3
Atom   3H    basis set group =>   4
Atom   4H    basis set group =>   4
Atom   5H    basis set group =>   4


           ************************************************************
           *        Program running with 8 parallel MPI-processes     *
           *              working on a common directory               *
           ************************************************************
------------------------------------------------------------------------------
                           ORCA GTO INTEGRAL CALCULATION
                           -- RI-GTO INTEGRALS CHOSEN --
------------------------------------------------------------------------------

                         BASIS SET STATISTICS AND STARTUP INFO

Gaussian basis set:
 # of primitive gaussian shells          ...   57
 # of primitive gaussian functions       ...  105
 # of contracted shells                  ...   29
 # of contracted basis functions         ...   61
 Highest angular momentum                ...    2
 Maximum contraction depth               ...    5
Auxiliary gaussian basis set:
 # of primitive gaussian shells          ...   99
 # of primitive gaussian functions       ...  265
 # of contracted shells                  ...   62
 # of contracted aux-basis functions     ...  182
 Highest angular momentum                ...    4
 Maximum contraction depth               ...    7
Ratio of auxiliary to basis functions    ...  2.98
Integral package used                  ... LIBINT
 One Electron integrals                  ... done
 Ordering auxiliary basis shells         ... done
 Integral threshhold             Thresh  ...  2.500e-11
 Primitive cut-off               TCut    ...  2.500e-12
 Pre-screening matrix                    ... done
 Shell pair data                         ... 
 Ordering of the shell pairs             ... done (   0.000 sec) 418 of 435 pairs
 Determination of significant pairs      ... done (   0.000 sec)
 Creation of shell pair data             ... done (   0.000 sec)
 Storage of shell pair data              ... done (   0.038 sec)
 Shell pair data done in (   0.038 sec)
 Computing two index integrals           ... done
 Cholesky decomposition of the V-matrix  ... done


Timings:
 Total evaluation time                   ...   0.187 sec (  0.003 min)
 One electron matrix time                ...   0.007 sec (  0.000 min) =  3.7%
 Schwartz matrix evaluation time         ...   0.117 sec (  0.002 min) = 62.3%
 Two index repulsion integral time       ...   0.001 sec (  0.000 min) =  0.5%
 Cholesky decomposition of V             ...   0.001 sec (  0.000 min) =  0.5%
 Three index repulsion integral time     ...   0.000 sec (  0.000 min) =  0.0%



           ************************************************************
           *        Program running with 8 parallel MPI-processes     *
           *              working on a common directory               *
           ************************************************************
-------------------------------------------------------------------------------
                                 ORCA SCF
-------------------------------------------------------------------------------

------------
SCF SETTINGS
------------
Hamiltonian:
 Density Functional     Method          .... DFT(GTOs)
 Exchange Functional    Exchange        .... PBE
   PBE kappa parameter   XKappa         ....  0.804000
   PBE mue parameter    XMuePBE         ....  0.219520
 Correlation Functional Correlation     .... PBE
   PBE beta parameter  CBetaPBE         ....  0.066725
 LDA part of GGA corr.  LDAOpt          .... PW91-LDA
 Gradients option       PostSCFGGA      .... off
 Hybrid DFT is turned on
   Fraction HF Exchange ScalHFX         ....  0.250000
   Scaling of DF-GGA-X  ScalDFX         ....  0.750000
   Scaling of DF-GGA-C  ScalDFC         ....  1.000000
   Scaling of DF-LDA-C  ScalLDAC        ....  1.000000
   Perturbative correction              ....  0.000000
   Density functional embedding theory  .... OFF
   NL short-range parameter             ....  6.900000
 RI-approximation to the Coulomb term is turned on
   Number of auxiliary basis functions  .... 182
   RIJ-COSX (HFX calculated with COS-X)).... on


General Settings:
 Integral files         IntName         .... get_orca_ts_guess_coarse_TS_orca_opt
 Hartree-Fock type      HFTyp           .... RHF
 Total Charge           Charge          ....   -1
 Multiplicity           Mult            ....    1
 Number of Electrons    NEL             ....   36
 Basis Dimension        Dim             ....   61
 Nuclear Repulsion      ENuc            ....     85.0138368799 Eh

Convergence Acceleration:
 DIIS                   CNVDIIS         .... on
   Start iteration      DIISMaxIt       ....    12
   Startup error        DIISStart       ....  0.200000
   # of expansion vecs  DIISMaxEq       ....     5
   Bias factor          DIISBfac        ....   1.050
   Max. coefficient     DIISMaxC        ....  10.000
 Newton-Raphson         CNVNR           .... off
 SOSCF                  CNVSOSCF        .... on
   Start iteration      SOSCFMaxIt      ....   150
   Startup grad/error   SOSCFStart      ....  0.003300
 Level Shifting         CNVShift        .... on
   Level shift para.    LevelShift      ....    0.2500
   Turn off err/grad.   ShiftErr        ....    0.0010
 Zerner damping         CNVZerner       .... off
 Static damping         CNVDamp         .... on
   Fraction old density DampFac         ....    0.7000
   Max. Damping (<1)    DampMax         ....    0.9800
   Min. Damping (>=0)   DampMin         ....    0.0000
   Turn off err/grad.   DampErr         ....    0.1000
 Fernandez-Rico         CNVRico         .... off

SCF Procedure:
 Maximum # iterations   MaxIter         ....   250
 SCF integral mode      SCFMode         .... Direct
   Integral package                     .... LIBINT
 Reset frequency        DirectResetFreq ....    20
 Integral Threshold     Thresh          ....  2.500e-11 Eh
 Primitive CutOff       TCut            ....  2.500e-12 Eh

Convergence Tolerance:
 Convergence Check Mode ConvCheckMode   .... Total+1el-Energy
 Convergence forced     ConvForced      .... 0
 Energy Change          TolE            ....  1.000e-08 Eh
 1-El. energy change                    ....  1.000e-05 Eh
 Orbital Gradient       TolG            ....  1.000e-05
 Orbital Rotation angle TolX            ....  1.000e-05
 DIIS Error             TolErr          ....  5.000e-07


Diagonalization of the overlap matrix:
Smallest eigenvalue                        ... 1.321e-02
Time for diagonalization                   ...    0.002 sec
Threshold for overlap eigenvalues          ... 1.000e-08
Number of eigenvalues below threshold      ... 0
Time for construction of square roots      ...    0.001 sec
Total time needed                          ...    0.003 sec

-------------------
DFT GRID GENERATION
-------------------

General Integration Accuracy     IntAcc      ...  4.340
Radial Grid Type                 RadialGrid  ... Gauss-Chebyshev
Angular Grid (max. acc.)         AngularGrid ... Lebedev-110
Angular grid pruning method      GridPruning ... 3 (G Style)
Weight generation scheme         WeightScheme... Becke
Basis function cutoff            BFCut       ...    1.0000e-11
Integration weight cutoff        WCut        ...    1.0000e-14
Grids for H and He will be reduced by one unit

# of grid points (after initial pruning)     ...   7622 (   0.0 sec)
# of grid points (after weights+screening)   ...   7441 (   0.0 sec)
nearest neighbour list constructed           ...    0.0 sec
Grid point re-assignment to atoms done       ...    0.0 sec
Grid point division into batches done        ...    0.0 sec
Reduced shell lists constructed in    0.0 sec

Total number of grid points                  ...     7441
Total number of batches                      ...      118
Average number of points per batch           ...       63
Average number of grid points per atom       ...     1240
Average number of shells per batch           ...    17.69 (60.99%)
Average number of basis functions per batch  ...    35.69 (58.50%)
Average number of large shells per batch     ...    15.12 (85.51%)
Average number of large basis fcns per batch ...    30.25 (84.76%)
Maximum spatial batch extension              ...  12.91, 25.60, 21.59 au
Average spatial batch extension              ...   0.79,  1.18,  1.08 au

Time for grid setup =    0.022 sec

------------------------------
INITIAL GUESS: MODEL POTENTIAL
------------------------------
Loading Hartree-Fock densities                     ... done
Calculating cut-offs                               ... done
Setting up the integral package                    ... done
Initializing the effective Hamiltonian             ... done
Starting the Coulomb interaction                   ... done (   0.0 sec)
Reading the grid                                   ... done
Mapping shells                                     ... done
Starting the XC term evaluation                    ... done (   0.0 sec)
  promolecular density results
     # of electrons  =     34.999373539
     EX              =    -43.241465321
     EC              =     -1.236100641
     EX+EC           =    -44.477565961
Transforming the Hamiltonian                       ... done (   0.0 sec)
Diagonalizing the Hamiltonian                      ... done (   0.0 sec)
Back transforming the eigenvectors                 ... done (   0.0 sec)
Now organizing SCF variables                       ... done
                      ------------------
                      INITIAL GUESS DONE (   0.1 sec)
                      ------------------
--------------------
COSX GRID GENERATION
--------------------

General Integration Accuracy     IntAcc      ...  3.340
Radial Grid Type                 RadialGrid  ... Gauss-Chebyshev
Angular Grid (max. acc.)         AngularGrid ... Lebedev-50
Angular grid pruning method      GridPruning ... 3 (G Style)
Weight generation scheme         WeightScheme... Becke
Basis function cutoff            BFCut       ...    1.0000e-11
Integration weight cutoff        WCut        ...    1.0000e-14
Grids for H and He will be reduced by one unit

# of grid points (after initial pruning)     ...   2826 (   0.0 sec)
# of grid points (after weights+screening)   ...   2765 (   0.0 sec)
nearest neighbour list constructed           ...    0.0 sec
Grid point re-assignment to atoms done       ...    0.0 sec
Grid point division into batches done        ...    0.0 sec
Reduced shell lists constructed in    0.0 sec

Total number of grid points                  ...     2765
Total number of batches                      ...       46
Average number of points per batch           ...       60
Average number of grid points per atom       ...      461
Average number of shells per batch           ...    19.29 (66.50%)
Average number of basis functions per batch  ...    39.86 (65.34%)
Average number of large shells per batch     ...    16.57 (85.93%)
Average number of large basis fcns per batch ...    34.29 (86.02%)
Maximum spatial batch extension              ...  12.62, 20.72, 20.72 au
Average spatial batch extension              ...   1.15,  1.58,  1.60 au

Overlap Fitting                  UseSFitting ... on
Constructing numerical overlap ... done (      0.0 sec)
Inverting numerical overlap    ... done (      0.0 sec)
Obtaining analytic overlap     ... done (      0.0 sec)
Final contraction and storage  ... done (      0.0 sec)


General Integration Accuracy     IntAcc      ...  3.670
Radial Grid Type                 RadialGrid  ... Gauss-Chebyshev
Angular Grid (max. acc.)         AngularGrid ... Lebedev-50
Angular grid pruning method      GridPruning ... 3 (G Style)
Weight generation scheme         WeightScheme... Becke
Basis function cutoff            BFCut       ...    1.0000e-11
Integration weight cutoff        WCut        ...    1.0000e-14
Grids for H and He will be reduced by one unit

# of grid points (after initial pruning)     ...   3566 (   0.0 sec)
# of grid points (after weights+screening)   ...   3486 (   0.0 sec)
nearest neighbour list constructed           ...    0.0 sec
Grid point re-assignment to atoms done       ...    0.0 sec
Grid point division into batches done        ...    0.0 sec
Reduced shell lists constructed in    0.0 sec

Total number of grid points                  ...     3486
Total number of batches                      ...       56
Average number of points per batch           ...       62
Average number of grid points per atom       ...      581
Average number of shells per batch           ...    19.50 (67.24%)
Average number of basis functions per batch  ...    40.50 (66.39%)
Average number of large shells per batch     ...    17.00 (87.18%)
Average number of large basis fcns per batch ...    35.25 (87.04%)
Maximum spatial batch extension              ...  13.54, 22.67, 22.67 au
Average spatial batch extension              ...   1.07,  1.44,  1.46 au

Overlap Fitting                  UseSFitting ... on
Constructing numerical overlap ... done (      0.0 sec)
Inverting numerical overlap    ... done (      0.0 sec)
Obtaining analytic overlap     ... done (      0.0 sec)
Final contraction and storage  ... done (      0.0 sec)


General Integration Accuracy     IntAcc      ...  4.010
Radial Grid Type                 RadialGrid  ... Gauss-Chebyshev
Angular Grid (max. acc.)         AngularGrid ... Lebedev-110
Angular grid pruning method      GridPruning ... 3 (G Style)
Weight generation scheme         WeightScheme... Becke
Basis function cutoff            BFCut       ...    1.0000e-11
Integration weight cutoff        WCut        ...    1.0000e-14
Grids for H and He will be reduced by one unit

# of grid points (after initial pruning)     ...   6574 (   0.0 sec)
# of grid points (after weights+screening)   ...   6426 (   0.0 sec)
nearest neighbour list constructed           ...    0.0 sec
Grid point re-assignment to atoms done       ...    0.0 sec
Grid point division into batches done        ...    0.0 sec
Reduced shell lists constructed in    0.0 sec

Total number of grid points                  ...     6426
Total number of batches                      ...      103
Average number of points per batch           ...       62
Average number of grid points per atom       ...     1071
Average number of shells per batch           ...    18.43 (63.55%)
Average number of basis functions per batch  ...    37.71 (61.83%)
Average number of large shells per batch     ...    14.93 (81.01%)
Average number of large basis fcns per batch ...    29.79 (78.98%)
Maximum spatial batch extension              ...  12.87, 24.23, 17.95 au
Average spatial batch extension              ...   0.80,  1.22,  0.98 au

Overlap Fitting                  UseSFitting ... on
Constructing numerical overlap ... done (      0.0 sec)
Inverting numerical overlap    ... done (      0.0 sec)
Obtaining analytic overlap     ... done (      0.0 sec)
Final contraction and storage  ... done (      0.0 sec)

Time for X-Grid setup             =    0.095 sec

--------------------
CPCM SOLVATION MODEL
--------------------
CPCM parameters:
  Epsilon                                         ...      78.3550
  Refrac                                          ...       1.0000
  Rsolv                                           ...       1.3000
  Surface type                                    ...    GEPOL SES
  Epsilon function type                           ...         CPCM
Solvent:                                     ... WATER
SMD-CDS solvent descriptors:
  Soln                                       ...    1.3328
  Soln25                                     ...    1.3323
  Sola                                       ...    0.0000
  Solb                                       ...    0.0000
  Solg                                       ...    0.0000
  Solc                                       ...    0.0000
  Solh                                       ...    0.0000
Radii:
 Radius for F  used is    3.2692 Bohr (=   1.7300 Ang.)
 Radius for C  used is    3.4960 Bohr (=   1.8500 Ang.)
 Radius for Cl used is    4.4975 Bohr (=   2.3800 Ang.)
 Radius for H  used is    2.2677 Bohr (=   1.2000 Ang.)
Calculating surface                               ...        done! (  0.0s)
GEPOL surface points                              ...          250
GEPOL Volume                                      ...     618.1819
GEPOL Surface-area                                ...     396.4722
Calculating surface distance matrix               ...        done! (  0.0s)
Performing Cholesky decomposition & store         ...        done! (  0.0s)
Overall time for CPCM initialization              ...                 0.0s
--------------
SCF ITERATIONS
--------------
ITER       Energy         Delta-E        Max-DP      RMS-DP      [F,P]     Damp
               ***  Starting incremental Fock matrix formation  ***
  0   -599.3654731872   0.000000000000 0.09004028  0.00440511  0.3313900 0.7000
  1   -599.4190666142  -0.053593426979 0.05296913  0.00285924  0.1371756 0.7000
                               ***Turning on DIIS***
  2   -599.4399765143  -0.020909900070 0.09535977  0.00472590  0.0353625 0.0000
  3   -599.4750876765  -0.035111162231 0.03732355  0.00187168  0.0769016 0.0000
  4   -599.4813480232  -0.006260346702 0.00969780  0.00052963  0.0099532 0.0000
  5   -599.4816066062  -0.000258582939 0.00279014  0.00017943  0.0040346 0.0000
                      *** Initiating the SOSCF procedure ***
                           *** Shutting down DIIS ***
                      *** Re-Reading the Fockian *** 
                      *** Removing any level shift *** 
ITER      Energy       Delta-E        Grad      Rot      Max-DP    RMS-DP
  6   -599.48163662  -0.0000300132  0.000571  0.000571  0.001894  0.000110
               *** Restarting incremental Fock matrix formation ***
  7   -599.48165110  -0.0000144776  0.000249  0.000810  0.001032  0.000052
  8   -599.48165033   0.0000007714  0.000388  0.000553  0.000582  0.000029
  9   -599.48165155  -0.0000012224  0.000039  0.000074  0.000199  0.000007
 10   -599.48165153   0.0000000220  0.000040  0.000053  0.000090  0.000003
 11   -599.48165154  -0.0000000168  0.000006  0.000007  0.000023  0.000001
 12   -599.48165155  -0.0000000028  0.000005  0.000003  0.000011  0.000000
                 **** Energy Check signals convergence ****
              ***Rediagonalizing the Fockian in SOSCF/NRSCF***

               *****************************************************
               *                     SUCCESS                       *
               *           SCF CONVERGED AFTER  13 CYCLES          *
               *****************************************************

Setting up the final grid:

General Integration Accuracy     IntAcc      ...  4.670
Radial Grid Type                 RadialGrid  ... Gauss-Chebyshev
Angular Grid (max. acc.)         AngularGrid ... Lebedev-302
Angular grid pruning method      GridPruning ... 3 (G Style)
Weight generation scheme         WeightScheme... Becke
Basis function cutoff            BFCut       ...    1.0000e-11
Integration weight cutoff        WCut        ...    1.0000e-14
Grids for H and He will be reduced by one unit

# of grid points (after initial pruning)     ...  29404 (   0.0 sec)
# of grid points (after weights+screening)   ...  28543 (   0.0 sec)
nearest neighbour list constructed           ...    0.0 sec
Grid point re-assignment to atoms done       ...    0.0 sec
Grid point division into batches done        ...    0.1 sec
Reduced shell lists constructed in    0.1 sec

Total number of grid points                  ...    28543
Total number of batches                      ...      449
Average number of points per batch           ...       63
Average number of grid points per atom       ...     4757
Average number of shells per batch           ...    16.14 (55.65%)
Average number of basis functions per batch  ...    32.86 (53.87%)
Average number of large shells per batch     ...    12.72 (78.85%)
Average number of large basis fcns per batch ...    25.17 (76.60%)
Maximum spatial batch extension              ...  15.28, 16.05, 16.05 au
Average spatial batch extension              ...   0.58,  0.65,  0.64 au

Final grid set up in    0.1 sec
Final integration                            ... done (   0.0 sec)
Change in XC energy                          ...    -0.000037593
Integrated number of electrons               ...    35.999930527
Previous integrated no of electrons          ...    35.999603271
Old exchange energy                            =    -11.018308098 Eh
New exchange energy                            =    -11.017900356 Eh
Exchange energy change after final integration =      0.000407742 Eh
Total energy after final integration           =   -599.481281394 Eh
Final COS-X integration done in                =     0.076 sec

SMD CDS free energy correction energy :                 2.78553     Kcal/mol
Total Energy after SMD CDS correction =              -599.476842365 Eh

----------------
TOTAL SCF ENERGY
----------------

Total Energy       :         -599.47684236 Eh          -16312.59420 eV

Components:
Nuclear Repulsion  :           85.01383688 Eh            2313.34411 eV
Electronic Energy  :         -684.49067924 Eh          -18625.93831 eV
One Electron Energy:        -1006.69239943 Eh          -27393.49285 eV
Two Electron Energy:          322.20172018 Eh            8767.55454 eV
CPCM Dielectric    :           -0.10312111 Eh              -2.80607 eV
SMD CDS (Gcds)     :            0.00443903 Eh               0.12079 eV

Virial components:
Potential Energy   :        -1197.10322978 Eh          -32574.83495 eV
Kinetic Energy     :          597.62638741 Eh           16262.24076 eV
Virial Ratio       :            2.00309634


DFT components:
N(Alpha)           :       17.999965263414 electrons
N(Beta)            :       17.999965263414 electrons
N(Total)           :       35.999930526828 electrons
E(X)               :      -32.908445706509 Eh       
E(C)               :       -1.290177860334 Eh       
E(XC)              :      -34.198623566843 Eh       
DFET-embed. en.    :        0.000000000000 Eh       
CPCM Solvation Model Properties:
Surface-charge          :            0.99311888
Charge-correction       :           -0.00118378 Eh              -0.03221 eV
Free-energy (cav+disp)  :            0.00330187 Eh               0.08985 eV
Corrected G(solv)       :         -599.47472427 Eh          -16312.53656 eV

---------------
SCF CONVERGENCE
---------------

  Last Energy change         ...    2.1805e-09  Tolerance :   1.0000e-08
  Last MAX-Density change    ...    1.7764e-15  Tolerance :   1.0000e-07
  Last RMS-Density change    ...    9.0560e-17  Tolerance :   5.0000e-09
  Last Orbital Gradient      ...    1.2187e-07  Tolerance :   1.0000e-05
  Last Orbital Rotation      ...    1.3124e-07  Tolerance :   1.0000e-05

             **** THE GBW FILE WAS UPDATED (get_orca_ts_guess_coarse_TS_orca_opt.gbw) ****
             **** DENSITY FILE WAS UPDATED (get_orca_ts_guess_coarse_TS_orca_opt.scfp.tmp) ****
             **** ENERGY FILE WAS UPDATED (get_orca_ts_guess_coarse_TS_orca_opt.en.tmp) ****
----------------
ORBITAL ENERGIES
----------------

  NO   OCC          E(Eh)            E(eV) 
   0   2.0000    -101.593460     -2764.4986 
   1   2.0000     -24.545917      -667.9284 
   2   2.0000     -10.268126      -279.4099 
   3   2.0000      -9.442077      -256.9320 
   4   2.0000      -7.181821      -195.4273 
   5   2.0000      -7.175203      -195.2472 
   6   2.0000      -7.175194      -195.2470 
   7   2.0000      -0.938941       -25.5499 
   8   2.0000      -0.763826       -20.7848 
   9   2.0000      -0.650289       -17.6953 
  10   2.0000      -0.419354       -11.4112 
  11   2.0000      -0.418788       -11.3958 
  12   2.0000      -0.332371        -9.0443 
  13   2.0000      -0.258906        -7.0452 
  14   2.0000      -0.258774        -7.0416 
  15   2.0000      -0.224361        -6.1052 
  16   2.0000      -0.223787        -6.0895 
  17   2.0000      -0.215058        -5.8520 
  18   0.0000       0.042713         1.1623 
  19   0.0000       0.108302         2.9471 
  20   0.0000       0.167499         4.5579 
  21   0.0000       0.168588         4.5875 
  22   0.0000       0.466539        12.6952 
  23   0.0000       0.468114        12.7380 
  24   0.0000       0.550556        14.9814 
  25   0.0000       0.613255        16.6875 
  26   0.0000       0.699173        19.0255 
  27   0.0000       0.699326        19.0296 
  28   0.0000       0.737128        20.0583 
  29   0.0000       0.747729        20.3467 
  30   0.0000       0.862964        23.4824 
  31   0.0000       0.863161        23.4878 
  32   0.0000       0.879714        23.9382 
  33   0.0000       0.880033        23.9469 
  34   0.0000       0.912202        24.8223 
  35   0.0000       0.949055        25.8251 
  36   0.0000       0.950741        25.8710 
  37   0.0000       1.209902        32.9231 
  38   0.0000       1.214850        33.0577 
  39   0.0000       1.253153        34.1000 
  40   0.0000       1.275929        34.7198 
  41   0.0000       1.383472        37.6462 
  42   0.0000       1.388972        37.7958 
  43   0.0000       1.509601        41.0783 
  44   0.0000       1.693323        46.0777 
  45   0.0000       1.719777        46.7975 
  46   0.0000       1.724688        46.9312 
  47   0.0000       1.971678        53.6521 
  48   0.0000       2.098149        57.0935 
  49   0.0000       2.098563        57.1048 
  50   0.0000       2.245313        61.0981 
  51   0.0000       2.388095        64.9834 
  52   0.0000       2.389810        65.0300 
  53   0.0000       2.837108        77.2016 
  54   0.0000       2.918121        79.4061 
  55   0.0000       2.921511        79.4984 
  56   0.0000       3.287481        89.4569 
  57   0.0000       3.288790        89.4925 
  58   0.0000       3.291384        89.5631 
  59   0.0000       3.291875        89.5765 
  60   0.0000       3.371418        91.7410 

                    ********************************
                    * MULLIKEN POPULATION ANALYSIS *
                    ********************************

-----------------------
MULLIKEN ATOMIC CHARGES
-----------------------
   0 F :   -0.747385
   1 C :   -0.018889
   2 Cl:   -0.494303
   3 H :    0.087838
   4 H :    0.087231
   5 H :    0.085508
Sum of atomic charges:   -1.0000000

--------------------------------
MULLIKEN REDUCED ORBITAL CHARGES
--------------------------------
  0 F s       :     3.977379  s :     3.977379
      pz      :     1.983581  p :     5.769656
      px      :     1.804636
      py      :     1.981439
      dz2     :     0.000055  d :     0.000349
      dxz     :     0.000064
      dyz     :     0.000001
      dx2y2   :     0.000161
      dxy     :     0.000068
  1 C s       :     3.205956  s :     3.205956
      pz      :     1.061664  p :     2.786163
      px      :     0.658375
      py      :     1.066125
      dz2     :     0.007196  d :     0.026770
      dxz     :     0.001514
      dyz     :     0.005839
      dx2y2   :     0.010091
      dxy     :     0.002129
  2 Cls       :     5.971933  s :     5.971933
      pz      :     3.990994  p :    11.511603
      px      :     3.531723
      py      :     3.988886
      dz2     :     0.001814  d :     0.010767
      dxz     :     0.001749
      dyz     :     0.000036
      dx2y2   :     0.005338
      dxy     :     0.001831
  3 H s       :     0.887847  s :     0.887847
      pz      :     0.012031  p :     0.024314
      px      :     0.005017
      py      :     0.007267
  4 H s       :     0.888334  s :     0.888334
      pz      :     0.012191  p :     0.024435
      px      :     0.005229
      py      :     0.007015
  5 H s       :     0.889812  s :     0.889812
      pz      :     0.004427  p :     0.024680
      px      :     0.006039
      py      :     0.014214


                     *******************************
                     * LOEWDIN POPULATION ANALYSIS *
                     *******************************

----------------------
LOEWDIN ATOMIC CHARGES
----------------------
   0 F :   -0.719578
   1 C :   -0.006137
   2 Cl:   -0.349368
   3 H :    0.025616
   4 H :    0.025155
   5 H :    0.024313

-------------------------------
LOEWDIN REDUCED ORBITAL CHARGES
-------------------------------
  0 F s       :     3.945101  s :     3.945101
      pz      :     1.983805  p :     5.774105
      px      :     1.808292
      py      :     1.982008
      dz2     :     0.000061  d :     0.000372
      dxz     :     0.000064
      dyz     :     0.000001
      dx2y2   :     0.000178
      dxy     :     0.000068
  1 C s       :     2.972775  s :     2.972775
      pz      :     1.109264  p :     2.971778
      px      :     0.751738
      py      :     1.110777
      dz2     :     0.016869  d :     0.061584
      dxz     :     0.003245
      dyz     :     0.014549
      dx2y2   :     0.021980
      dxy     :     0.004940
  2 Cls       :     5.889297  s :     5.889297
      pz      :     3.979718  p :    11.449249
      px      :     3.491931
      py      :     3.977600
      dz2     :     0.001963  d :     0.010823
      dxz     :     0.001478
      dyz     :     0.000033
      dx2y2   :     0.005773
      dxy     :     0.001576
  3 H s       :     0.902641  s :     0.902641
      pz      :     0.037185  p :     0.071743
      px      :     0.013316
      py      :     0.021243
  4 H s       :     0.902718  s :     0.902718
      pz      :     0.037922  p :     0.072127
      px      :     0.013745
      py      :     0.020461
  5 H s       :     0.902960  s :     0.902960
      pz      :     0.011777  p :     0.072727
      px      :     0.016343
      py      :     0.044607


                      *****************************
                      * MAYER POPULATION ANALYSIS *
                      *****************************

  NA   - Mulliken gross atomic population
  ZA   - Total nuclear charge
  QA   - Mulliken gross atomic charge
  VA   - Mayer's total valence
  BVA  - Mayer's bonded valence
  FA   - Mayer's free valence

  ATOM       NA         ZA         QA         VA         BVA        FA
  0 F      9.7474     9.0000    -0.7474     0.4514     0.4514     0.0000
  1 C      6.0189     6.0000    -0.0189     3.8745     3.8745    -0.0000
  2 Cl    17.4943    17.0000    -0.4943     0.7512     0.7512     0.0000
  3 H      0.9122     1.0000     0.0878     1.0079     1.0079    -0.0000
  4 H      0.9128     1.0000     0.0872     1.0104     1.0104    -0.0000
  5 H      0.9145     1.0000     0.0855     1.0142     1.0142    -0.0000

  Mayer bond orders larger than 0.1
B(  0-F ,  1-C ) :   0.2895 B(  1-C ,  2-Cl) :   0.6545 B(  1-C ,  3-H ) :   0.9778 
B(  1-C ,  4-H ) :   0.9770 B(  1-C ,  5-H ) :   0.9757 

-------
TIMINGS
-------

Total SCF time: 0 days 0 hours 0 min 5 sec 

Total time                  ....       5.919 sec
Sum of individual times     ....       5.786 sec  ( 97.7%)

Fock matrix formation       ....       5.409 sec  ( 91.4%)
  Split-RI-J                ....       1.496 sec  ( 27.6% of F)
  Chain of spheres X        ....       0.804 sec  ( 14.9% of F)
  COS-X 1 center corr.      ....       0.000 sec  (  0.0% of F)
  XC integration            ....       0.111 sec  (  2.1% of F)
    Basis function eval.    ....       0.022 sec  ( 19.7% of XC)
    Density eval.           ....       0.009 sec  (  7.7% of XC)
    XC-Functional eval.     ....       0.009 sec  (  8.4% of XC)
    XC-Potential eval.      ....       0.010 sec  (  9.0% of XC)
Diagonalization             ....       0.003 sec  (  0.1%)
Density matrix formation    ....       0.001 sec  (  0.0%)
Population analysis         ....       0.002 sec  (  0.0%)
Initial guess               ....       0.106 sec  (  1.8%)
Orbital Transformation      ....       0.000 sec  (  0.0%)
Orbital Orthonormalization  ....       0.000 sec  (  0.0%)
DIIS solution               ....       0.002 sec  (  0.0%)
SOSCF solution              ....       0.002 sec  (  0.0%)
Grid generation             ....       0.262 sec  (  4.4%)


-------------------------------------------------------------------------------
                          DFT DISPERSION CORRECTION                            
                                                                               
                              DFTD3 V3.1  Rev 1                                
                          USING Becke-Johnson damping                          
-------------------------------------------------------------------------------
The PBE0 functional is recognized
Active option DFTDOPT                   ...         4   

molecular C6(AA) [au] = 486.467945 


            DFT-D V3
 parameters
 s6 scaling factor         :     1.0000 
 a1 scaling factor         :     0.4145 
 s8 scaling factor         :     1.2177 
 a2 scaling factor         :     4.8593 
 ad hoc parameters k1-k3   :    16.0000     1.3333    -4.0000 

 Edisp/kcal,au: -1.501564530145  -0.002392895139 
 E6   /kcal   :  -0.948879353 
 E8   /kcal   :  -0.552685177 
 % E8         :  36.807287752 

-------------------------   ----------------
Dispersion correction           -0.002392895
-------------------------   ----------------


-------------------------   --------------------
FINAL SINGLE POINT ENERGY      -599.479235259777
-------------------------   --------------------



           ************************************************************
           *        Program running with 8 parallel MPI-processes     *
           *              working on a common directory               *
           ************************************************************
------------------------------------------------------------------------------
                         ORCA SCF GRADIENT CALCULATION
------------------------------------------------------------------------------

Gradient of the Kohn-Sham DFT energy:
Kohn-Sham wavefunction type      ... RKS
Hartree-Fock exchange scaling    ...    0.250
Number of operators              ...    1
Number of atoms                  ...    6
Basis set dimensions             ...   61
Integral neglect threshold       ... 2.5e-11
Integral primitive cutoff        ... 2.5e-12

Nuclear repulsion gradient       ... done
One Electron Gradient            ... done
Pre-screening matrix             ... done
RI-J gradient                    ... done
COSX-gradient                    ... done
Exchange-correlation gradient    ... done
Dispersion correction            ... done

------------------
CARTESIAN GRADIENT
------------------

   1   F   :    0.003154251   -0.003740882    0.000117799
   2   C   :   -0.009339946   -0.000034996    0.000101590
   3   Cl  :    0.014332046    0.001596634   -0.000061501
   4   H   :   -0.000851146   -0.002653183   -0.004864558
   5   H   :   -0.001429853   -0.002454696    0.004916923
   6   H   :   -0.002962722    0.004739034    0.000086737

Difference to translation invariance:
           :    0.0029026302   -0.0025480899    0.0002969903

Norm of the cartesian gradient     ...    0.0203489967
RMS gradient                       ...    0.0047963045
MAX gradient                       ...    0.0143320463

-------
TIMINGS
-------

Total SCF gradient time            ...        0.598 sec

One electron gradient       ....       0.005 sec  (  0.8%)
Prescreening matrices       ....       0.005 sec  (  0.9%)
RI-J Coulomb gradient       ....       0.102 sec  ( 17.0%)
COSX gradient               ....       0.082 sec  ( 13.8%)
XC gradient                 ....       0.040 sec  (  6.7%)
CPCM gradient               ....       0.069 sec  ( 11.6%)
   A-Matrix (El+Nuc)        ....       0.001 sec  (  0.2%)
   Potential                ....       0.068 sec  ( 11.4%)


           ************************************************************
           *        Program running with 8 parallel MPI-processes     *
           *              working on a common directory               *
           ************************************************************

-------------------------------------------------------------------------------
                               ORCA SCF HESSIAN
-------------------------------------------------------------------------------

Hessian of the Kohn-Sham DFT energy:
Kohn-Sham wavefunction type                      ... RKS
Hartree-Fock exchange scaling                    ...    0.250
Number of operators                              ...    1
Number of atoms                                  ...    6
Basis set dimensions                             ...   61
Integral neglect threshold                       ... 2.5e-11
Integral primitive cutoff                        ... 2.5e-12

Setting up DFT Hessian calculations              ... 
Electron density on the grid                     ... found on disk
Electron density on the final grid               ... found on disk
Building xc-kernel on the grid                   ... done   (      0.0 sec)
Building xc-kernel on the final grid             ... done   (      0.0 sec)
                                                     done   (      0.0 sec)

Nuclear repulsion Hessian                        ... done   (      0.0 sec)
C-PCM contribution to the Fock matrix            ... done   (      0.3 sec)

----------------------------------------------
Forming right-hand sides of CP-SCF equations     ...
----------------------------------------------
One electron integral derivatives                ... done   (      0.1 sec)
Transforming the overlap derivative matrices     ... done   (      0.0 sec)
Adding tr(S(x)F(y) C-PCM term to the hessian     ... done   (      0.2 sec)
Making the Q(x) pseudodensities                  ... done   (      0.0 sec)
Adding the E*S(x)*S(y) terms to the Hessian      ... done   (      0.0 sec)
Calculating energy weighted overlap derivatives  ... done   (      0.0 sec)
Two electron integral derivatives (RI)           ... done   (      0.3 sec)
Exchange-correlation integral derivatives        ... done   (      0.2 sec)
tr(F(y)Q(x)) contribution to the Hessian         ... done   (      0.0 sec)
Response fock operator R(S(x)) (RIJCOSX)         ... done   (      0.3 sec)
XC Response fock operator R(S(x))                ... done   (      0.1 sec)
tr(F(y)S(x)) contribution to the Hessian         ... done   (      0.0 sec)
Transforming and finalizing RHSs                 ... done   (      0.0 sec)

----------------------------------------------
Solving the CP-SCF equations (RIJCOSX)           ...
----------------------------------------------
     CP-SCF ITERATION   0: 
     CP-SCF ITERATION   1:      0.000450908576
     CP-SCF ITERATION   2:      0.000071838803
     CP-SCF ITERATION   3:      0.000005376225
     CP-SCF ITERATION   4:      0.000000171365
     CP-SCF ITERATION   5:      0.000000008573

                                                 ... done   (      2.4 sec)
Forming perturbed density Hessian contributions  ... done   (      0.0 sec)
Calculating [Q*(d^2 A/dXdY)*Q  ] C-PCM term      ... done   (      0.0 sec)
Calculating [d^2(V_N)/(dXdY)*Q ] C-PCM term      ... done   (      0.0 sec)
Calculating [d^2(V_el)/(dXdY)*Q] C-PCM term      ... done   (      0.1 sec)
Calculating C-PCM term that depends on dQ/dX     ... done   (      0.0 sec)
2nd integral derivative contribs (RI)            ... done   (      0.7 sec)
Exchange-correlation Hessian                     ... done   (      0.3 sec)
Dispersion correction in the Hessian             ... done   (      0.6 sec)
Dipol derivatives                                ... done   (      0.1 sec)

Total SCF Hessian time: 0 days 0 hours 0 min 6 sec 

Writing the Hessian file to the disk             ... done


Maximum memory used throughout the entire calculation: 121.9 MB

-----------------------
VIBRATIONAL FREQUENCIES
-----------------------

Scaling factor for frequencies =  1.000000000  (already applied!)

   0:         0.00 cm**-1
   1:         0.00 cm**-1
   2:         0.00 cm**-1
   3:         0.00 cm**-1
   4:         0.00 cm**-1
   5:         0.00 cm**-1
   6:      -401.32 cm**-1 ***imaginary mode***
   7:       207.48 cm**-1
   8:       210.90 cm**-1
   9:       269.30 cm**-1
  10:       893.32 cm**-1
  11:       901.31 cm**-1
  12:      1051.91 cm**-1
  13:      1346.59 cm**-1
  14:      1350.74 cm**-1
  15:      3108.70 cm**-1
  16:      3304.31 cm**-1
  17:      3312.93 cm**-1


------------
NORMAL MODES
------------

These modes are the Cartesian displacements weighted by the diagonal matrix
M(i,i)=1/sqrt(m[i]) where m[i] is the mass of the displaced atom
Thus, these vectors are normalized but *not* orthogonal

                  0          1          2          3          4          5    
      0       0.000000   0.000000   0.000000   0.000000   0.000000   0.000000
      1       0.000000   0.000000   0.000000   0.000000   0.000000   0.000000
      2       0.000000   0.000000   0.000000   0.000000   0.000000   0.000000
      3       0.000000   0.000000   0.000000   0.000000   0.000000   0.000000
      4       0.000000   0.000000   0.000000   0.000000   0.000000   0.000000
      5       0.000000   0.000000   0.000000   0.000000   0.000000   0.000000
      6       0.000000   0.000000   0.000000   0.000000   0.000000   0.000000
      7       0.000000   0.000000   0.000000   0.000000   0.000000   0.000000
      8       0.000000   0.000000   0.000000   0.000000   0.000000   0.000000
      9       0.000000   0.000000   0.000000   0.000000   0.000000   0.000000
     10       0.000000   0.000000   0.000000   0.000000   0.000000   0.000000
     11       0.000000   0.000000   0.000000   0.000000   0.000000   0.000000
     12       0.000000   0.000000   0.000000   0.000000   0.000000   0.000000
     13       0.000000   0.000000   0.000000   0.000000   0.000000   0.000000
     14       0.000000   0.000000   0.000000   0.000000   0.000000   0.000000
     15       0.000000   0.000000   0.000000   0.000000   0.000000   0.000000
     16       0.000000   0.000000   0.000000   0.000000   0.000000   0.000000
     17       0.000000   0.000000   0.000000   0.000000   0.000000   0.000000
                  6          7          8          9         10         11    
      0      -0.268535  -0.006114   0.013287   0.842222   0.002496   0.001728
      1      -0.004737   0.025436  -0.183342   0.058274   0.005232   0.000880
      2       0.007945  -0.183673  -0.025792  -0.006755  -0.000827   0.005238
      3       0.912663   0.011866  -0.009024   0.124598  -0.005937  -0.002118
      4       0.037272  -0.061010   0.441047  -0.015555   0.058497   0.008750
      5      -0.015048   0.440578   0.061974   0.000609  -0.009001   0.058032
      6      -0.165314  -0.001335  -0.001811  -0.500208   0.001462   0.000180
      7      -0.007135   0.012787  -0.092151  -0.024386  -0.015180  -0.002326
      8       0.002285  -0.091825  -0.012869   0.003244   0.002323  -0.015208
      9       0.034445  -0.135273  -0.138595   0.057616   0.291630   0.740015
     10       0.038121  -0.041773   0.456450  -0.011463  -0.068212   0.047287
     11       0.097086   0.463107   0.081402   0.013406   0.023297  -0.075302
     12      -0.003745   0.176308  -0.093246   0.082520   0.485499  -0.637274
     13       0.038527  -0.089865   0.489827  -0.013280  -0.055406  -0.065254
     14      -0.136568   0.464329   0.071417  -0.010278   0.000611  -0.080408
     15      -0.030182  -0.020221   0.152639   0.094760  -0.804855  -0.116397
     16      -0.180546  -0.070510   0.494955  -0.030514  -0.138119  -0.021092
     17      -0.011299   0.514157   0.047452   0.002846   0.017248  -0.099598
                 12         13         14         15         16         17    
      0       0.031767   0.000170   0.000095   0.000604   0.000025  -0.000038
      1       0.001357  -0.000059   0.000384   0.000002   0.000044  -0.000696
      2      -0.000438   0.000296  -0.000045  -0.000014   0.000715   0.000070
      3       0.023557  -0.000195   0.005569   0.021722   0.000890  -0.008366
      4       0.001239  -0.006464  -0.086431   0.004753  -0.007320   0.101580
      5       0.000198  -0.086694   0.006561   0.000439  -0.102054  -0.007396
      6       0.023417  -0.000026  -0.000061  -0.000106  -0.000009   0.000051
      7       0.001936  -0.000031  -0.000239  -0.000003   0.000021  -0.000422
      8       0.000029  -0.000184   0.000032   0.000008   0.000414   0.000044
      9      -0.586953   0.148858   0.020811  -0.069191   0.090589  -0.043731
     10       0.010390  -0.340304   0.591901  -0.304721   0.373523  -0.170902
     11       0.078334   0.099814  -0.403230  -0.504401   0.611211  -0.294119
     12      -0.578660  -0.142508   0.039163  -0.070880  -0.088681  -0.056492
     13       0.012289   0.417190   0.553172  -0.288482  -0.339522  -0.205701
     14      -0.078003   0.140066   0.374447   0.505151   0.584970   0.370760
     15      -0.537434  -0.006326  -0.125973  -0.126400  -0.012655   0.198851
     16      -0.131084   0.002349  -0.114007   0.536662   0.051657  -0.805821
     17       0.004551   0.794036  -0.049699  -0.005980  -0.008182   0.008635


-----------
IR SPECTRUM
-----------

 Mode    freq (cm**-1)   T**2         TX         TY         TZ
-------------------------------------------------------------------
   7:       207.48   25.524725  (  0.354564  -0.717923   4.988346)
   8:       210.90   27.113658  (  0.544136   5.135742   0.664629)
   9:       269.30    4.304262  ( -2.064305  -0.205152   0.028615)
  10:       893.32    2.928211  ( -0.265741  -1.665593   0.288774)
  11:       901.31    2.095913  ( -0.256304  -0.202333  -1.410419)
  12:      1051.91   14.706730  (  3.829335   0.197694  -0.061989)
  13:      1346.59    8.910926  ( -0.040422   0.212415   2.977276)
  14:      1350.74    9.938984  ( -0.273185   3.131011  -0.247235)
  15:      3108.70    1.281310  (  1.114474   0.191347   0.051419)
  16:      3304.31    0.018495  ( -0.128714  -0.035649  -0.025636)
  17:      3312.93    0.046006  (  0.171045  -0.123366   0.039120)

The first frequency considered to be a vibration is 7
The total number of vibrations considered is 11


--------------------------
THERMOCHEMISTRY AT 298.15K
--------------------------

Temperature         ... 298.15 K
Pressure            ... 1.00 atm
Total Mass          ... 69.49 AMU

Throughout the following assumptions are being made:
  (1) The electronic state is orbitally nondegenerate
  (2) There are no thermally accessible electronically excited states
  (3) Hindered rotations indicated by low frequency modes are not
      treated as such but are treated as vibrations and this may
      cause some error
  (4) All equations used are the standard statistical mechanics
      equations for an ideal gas
  (5) All vibrations are strictly harmonic

freq.     207.48  E(vib)   ...       0.34 
freq.     210.90  E(vib)   ...       0.34 
freq.     269.30  E(vib)   ...       0.29 
freq.     893.32  E(vib)   ...       0.03 
freq.     901.31  E(vib)   ...       0.03 
freq.    1051.91  E(vib)   ...       0.02 
freq.    1346.59  E(vib)   ...       0.01 
freq.    1350.74  E(vib)   ...       0.01 
freq.    3108.70  E(vib)   ...       0.00 
freq.    3304.31  E(vib)   ...       0.00 
freq.    3312.93  E(vib)   ...       0.00 

------------
INNER ENERGY
------------

The inner energy is: U= E(el) + E(ZPE) + E(vib) + E(rot) + E(trans)
    E(el)   - is the total energy from the electronic structure calculation
              = E(kin-el) + E(nuc-el) + E(el-el) + E(nuc-nuc)
    E(ZPE)  - the the zero temperature vibrational energy from the frequency calculation
    E(vib)  - the the finite temperature correction to E(ZPE) due to population
              of excited vibrational states
    E(rot)  - is the rotational thermal energy
    E(trans)- is the translational thermal energy

Summary of contributions to the inner energy U:
Electronic energy                ...   -599.47923526 Eh
Zero point energy                ...      0.03635385 Eh      22.81 kcal/mol
Thermal vibrational correction   ...      0.00171056 Eh       1.07 kcal/mol
Thermal rotational correction    ...      0.00141627 Eh       0.89 kcal/mol
Thermal translational correction ...      0.00141627 Eh       0.89 kcal/mol
-----------------------------------------------------------------------
Total thermal energy                   -599.43833831 Eh


Summary of corrections to the electronic energy:
(perhaps to be used in another calculation)
Total thermal correction                  0.00454310 Eh       2.85 kcal/mol
Non-thermal (ZPE) correction              0.03635385 Eh      22.81 kcal/mol
-----------------------------------------------------------------------
Total correction                          0.04089695 Eh      25.66 kcal/mol


--------
ENTHALPY
--------

The enthalpy is H = U + kB*T
                kB is Boltzmann's constant
Total free energy                 ...   -599.43833831 Eh 
Thermal Enthalpy correction       ...      0.00094421 Eh       0.59 kcal/mol
-----------------------------------------------------------------------
Total Enthalpy                    ...   -599.43739410 Eh


Note: Rotational entropy computed according to Herzberg 
Infrared and Raman Spectra, Chapter V,1, Van Nostrand Reinhold, 1945 
Point Group:  C1, Symmetry Number:   1  
Rotational constants in cm-1:     4.807708     0.074030     0.074026 

Vibrational entropy computed according to the QRRHO of S. Grimme
Chem.Eur.J. 2012 18 9955


-------
ENTROPY
-------

The entropy contributions are T*S = T*(S(el)+S(vib)+S(rot)+S(trans))
     S(el)   - electronic entropy
     S(vib)  - vibrational entropy
     S(rot)  - rotational entropy
     S(trans)- translational entropy
The entropies will be listed as mutliplied by the temperature to get
units of energy

Electronic entropy                ...      0.00000000 Eh      0.00 kcal/mol
Vibrational entropy               ...      0.00290658 Eh      1.82 kcal/mol
Rotational entropy                ...      0.01122752 Eh      7.05 kcal/mol
Translational entropy             ...      0.01835566 Eh     11.52 kcal/mol
-----------------------------------------------------------------------
Final entropy term                ...      0.03248975 Eh     20.39 kcal/mol


-------------------
GIBBS FREE ENTHALPY
-------------------

The Gibbs free enthalpy is G = H - T*S

Total enthalpy                    ...   -599.43739410 Eh 
Total entropy correction          ...     -0.03248975 Eh    -20.39 kcal/mol
-----------------------------------------------------------------------
Final Gibbs free enthalpy         ...   -599.46988386 Eh

For completeness - the Gibbs free enthalpy minus the electronic energy
G-E(el)                           ...      0.00935140 Eh      5.87 kcal/mol

Actual Hessian File stored as get_orca_ts_guess_coarse_TS_orca_opt.001.hess
------------------------------------------------------------------------------
                         ORCA GEOMETRY RELAXATION STEP
------------------------------------------------------------------------------

Reading the OPT-File                    .... done
Getting information on internals        .... done
Copying old internal coords+grads       .... done
Making the new internal coordinates     .... (new redundants).... done
Validating the new internal coordinates .... (new redundants).... done
Calculating the B-matrix                .... done
Calculating the G,G- and P matrices     .... done
Transforming gradient to internals      .... done
Projecting the internal gradient        .... done
Number of atoms                         ....   6
Number of internal coordinates          ....  17
Current Energy                          ....  -599.479235260 Eh
Current gradient norm                   ....     0.020348997 Eh/bohr
Maximum allowed component of the step   ....  0.300
Current trust radius                    ....  0.200
Evaluating the initial hessian          ....  (read) 
(Reading Exact Hessian)...  
InHessName: get_orca_ts_guess_coarse_TS_orca_opt.hess	The file <get_orca_ts_guess_coarse_TS_orca_opt.hess> is opened as a .hess file
done
done
Diagonalizing the Hessian               .... done
Dimension of the hessian                .... 17
Lowest eigenvalues of the non projected Hessian:
 -0.019634100 -0.000031176 -0.000014769 -0.000000670  0.000020009
done
Projecting the Hessian                  .... done
Diagonalizing the Hessian               .... done
Dimension of the hessian                ....  17
Lowest eigenvalues of the Hessian:
 -0.019634249  0.009115800  0.009350029  0.016786232  0.092922006
Hessian has   1 negative eigenvalues
Taking P-RFO step
Searching for lambda that maximizes along the lowest mode
TS mode is mode number   0 with eigenvalue  -0.01963425 and components:
   1.    0.56665067
   2.   -0.59946393
   3.    0.12604259
   4.    0.00446022
   5.    0.00482661
   6.    0.10105516
   7.    0.07564919
   8.    0.00544924
   9.    0.20339514
  10.   -0.11287106
  11.    0.20217637
  12.   -0.11377824
  13.   -0.11677627
  14.   -0.19237379
  15.   -0.20319265
  16.   -0.21439567
  17.    0.20451918

Lambda that maximizes along the TS mode:       0.00293802
Searching for lambda that minimizes along all other modes
In cycle   1: lambdaN =  -0.00204264   step =   0.00204264
In cycle   2: lambdaN =  -0.00205224   step =   0.00000960
In cycle   3: lambdaN =  -0.00205224   step =   0.00000000
Lambda that minimizes along all other modes:  -0.00205224
Calculated stepsize too large (   0.4075 >    0.2000). Scaled with    0.4908.
The final length of the internal step   ....       0.2000
Converting the step to cartesian space:
 Initial RMS(Int)=    0.0485071250
Transforming coordinates:
 Iter   0:  RMS(Cart)=    0.0280034154 RMS(Int)=    0.0482101535
 Iter   1:  RMS(Cart)=    0.0008574866 RMS(Int)=    0.0009626143
 Iter   2:  RMS(Cart)=    0.0000247849 RMS(Int)=    0.0000230603
 Iter   3:  RMS(Cart)=    0.0000006842 RMS(Int)=    0.0000008834
 Iter   4:  RMS(Cart)=    0.0000000331 RMS(Int)=    0.0000000332
done
Storing new coordinates                 .... done

                                .--------------------.
          ----------------------|Geometry convergence|-------------------------
          Item                value                   Tolerance       Converged
          ---------------------------------------------------------------------
          RMS gradient        0.0043345483            0.0001000000      NO
          MAX gradient        0.0139466796            0.0003000000      NO
          RMS step            0.0485071250            0.0020000000      NO
          MAX step            0.1315867286            0.0040000000      NO
          ........................................................
          Max(Bonds)      0.0696      Max(Angles)    3.39
          Max(Dihed)        0.00      Max(Improp)    0.00
          ---------------------------------------------------------------------

The optimization has not yet converged - more geometry cycles are needed


    ---------------------------------------------------------------------------
                         Redundant Internal Coordinates
                            (Angstroem and degrees)

        Definition                    Value    dE/dq     Step     New-Value  comp.(TS mode)
    ----------------------------------------------------------------------------
     1. B(C   1,F   0)                2.1214 -0.001164 -0.0696    2.0518          0.57
     2. B(Cl  2,C   1)                2.1023  0.013947  0.0284    2.1307          0.60
     3. B(H   3,F   0)                2.2421 -0.001142 -0.0148    2.2273   
     4. B(H   3,C   1)                1.0926  0.005936 -0.0046    1.0880   
     5. B(H   4,C   1)                1.0923  0.005936 -0.0045    1.0878   
     6. B(H   4,F   0)                2.2155 -0.001353 -0.0013    2.2142   
     7. B(H   5,F   0)                2.1888  0.000978 -0.0372    2.1516   
     8. B(H   5,C   1)                1.0912  0.005452 -0.0056    1.0856   
     9. A(Cl  2,C   1,H   4)           99.66 -0.000467   -2.47     97.19   
    10. A(H   3,C   1,H   4)          117.35  0.000674    1.08    118.43   
    11. A(Cl  2,C   1,H   5)          100.40  0.003617   -2.77     97.63   
    12. A(H   3,C   1,H   5)          117.20 -0.000848    1.50    118.70   
    13. A(H   4,C   1,H   5)          117.03 -0.001030    1.62    118.64   
    14. A(F   0,C   1,H   3)           81.72 -0.001141    2.68     84.40   
    15. A(F   0,C   1,H   4)           80.24 -0.001180    3.39     83.64   
    16. A(F   0,C   1,H   5)           78.79  0.000154    1.40     80.18   
    17. A(Cl  2,C   1,H   3)           99.19 -0.001002   -2.22     96.97   
    ----------------------------------------------------------------------------

         *************************************************************
         *                GEOMETRY OPTIMIZATION CYCLE   2            *
         *************************************************************
---------------------------------
CARTESIAN COORDINATES (ANGSTROEM)
---------------------------------
  F     -2.482040   -0.096989    0.017049
  C     -0.431819   -0.020930   -0.000765
  Cl     1.692808    0.139918   -0.008739
  H     -0.524513   -0.582570   -0.927985
  H     -0.523257   -0.560000    0.939656
  H     -0.656180    1.041171   -0.012815

----------------------------
CARTESIAN COORDINATES (A.U.)
----------------------------
  NO LB      ZA    FRAG     MASS         X           Y           Z
   0 F     9.0000    0    18.998   -4.690376   -0.183283    0.032218
   1 C     6.0000    0    12.011   -0.816020   -0.039551   -0.001445
   2 Cl   17.0000    0    35.453    3.198944    0.264406   -0.016514
   3 H     1.0000    0     1.008   -0.991185   -1.100897   -1.753637
   4 H     1.0000    0     1.008   -0.988812   -1.058246    1.775693
   5 H     1.0000    0     1.008   -1.240000    1.967528   -0.024218

--------------------------------
INTERNAL COORDINATES (ANGSTROEM)
--------------------------------
 F      0   0   0     0.000000000000     0.00000000     0.00000000
 C      1   0   0     2.051708933676     0.00000000     0.00000000
 Cl     2   1   0     2.130722210079   177.77716960     0.00000000
 H      2   1   3     1.088011186988    84.44097407   231.68702515
 H      2   1   4     1.087818435065    83.69206610   240.68111640
 H      2   1   5     1.085605952075    80.20323242   239.59280591

---------------------------
INTERNAL COORDINATES (A.U.)
---------------------------
 F      0   0   0     0.000000000000     0.00000000     0.00000000
 C      1   0   0     3.877167991166     0.00000000     0.00000000
 Cl     2   1   0     4.026481444512   177.77716960     0.00000000
 H      2   1   3     2.056043174049    84.44097407   231.68702515
 H      2   1   4     2.055678925704    83.69206610   240.68111640
 H      2   1   5     2.051497938777    80.20323242   239.59280591



           ************************************************************
           *        Program running with 8 parallel MPI-processes     *
           *              working on a common directory               *
           ************************************************************
 One Electron integrals                  ... done
 Pre-screening matrix                    ... done


           ************************************************************
           *        Program running with 8 parallel MPI-processes     *
           *              working on a common directory               *
           ************************************************************

Diagonalization of the overlap matrix:
Smallest eigenvalue                        ... 1.298e-02
Time for diagonalization                   ...    0.002 sec
Threshold for overlap eigenvalues          ... 1.000e-08
Number of eigenvalues below threshold      ... 0
Time for construction of square roots      ...    0.001 sec
Total time needed                          ...    0.004 sec

-------------------
DFT GRID GENERATION
-------------------

General Integration Accuracy     IntAcc      ...  4.340
Radial Grid Type                 RadialGrid  ... Gauss-Chebyshev
Angular Grid (max. acc.)         AngularGrid ... Lebedev-110
Angular grid pruning method      GridPruning ... 3 (G Style)
Weight generation scheme         WeightScheme... Becke
Basis function cutoff            BFCut       ...    1.0000e-11
Integration weight cutoff        WCut        ...    1.0000e-14
Grids for H and He will be reduced by one unit

# of grid points (after initial pruning)     ...   7622 (   0.0 sec)
# of grid points (after weights+screening)   ...   7436 (   0.0 sec)
nearest neighbour list constructed           ...    0.0 sec
Grid point re-assignment to atoms done       ...    0.0 sec
Grid point division into batches done        ...    0.0 sec
Reduced shell lists constructed in    0.0 sec

Total number of grid points                  ...     7436
Total number of batches                      ...      118
Average number of points per batch           ...       63
Average number of grid points per atom       ...     1239
Average number of shells per batch           ...    17.81 (61.42%)
Average number of basis functions per batch  ...    36.06 (59.12%)
Average number of large shells per batch     ...    15.25 (85.61%)
Average number of large basis fcns per batch ...    30.38 (84.23%)
Maximum spatial batch extension              ...  12.87, 25.60, 19.31 au
Average spatial batch extension              ...   0.77,  1.21,  1.03 au

Time for grid setup =    0.020 sec

--------------------
COSX GRID GENERATION
--------------------

General Integration Accuracy     IntAcc      ...  3.340
Radial Grid Type                 RadialGrid  ... Gauss-Chebyshev
Angular Grid (max. acc.)         AngularGrid ... Lebedev-50
Angular grid pruning method      GridPruning ... 3 (G Style)
Weight generation scheme         WeightScheme... Becke
Basis function cutoff            BFCut       ...    1.0000e-11
Integration weight cutoff        WCut        ...    1.0000e-14
Grids for H and He will be reduced by one unit

# of grid points (after initial pruning)     ...   2826 (   0.0 sec)
# of grid points (after weights+screening)   ...   2765 (   0.0 sec)
nearest neighbour list constructed           ...    0.0 sec
Grid point re-assignment to atoms done       ...    0.0 sec
Grid point division into batches done        ...    0.0 sec
Reduced shell lists constructed in    0.0 sec

Total number of grid points                  ...     2765
Total number of batches                      ...       46
Average number of points per batch           ...       60
Average number of grid points per atom       ...      461
Average number of shells per batch           ...    19.43 (67.00%)
Average number of basis functions per batch  ...    40.00 (65.57%)
Average number of large shells per batch     ...    16.57 (85.29%)
Average number of large basis fcns per batch ...    34.29 (85.71%)
Maximum spatial batch extension              ...  12.62, 20.72, 20.72 au
Average spatial batch extension              ...   1.15,  1.58,  1.60 au

Overlap Fitting                  UseSFitting ... on
Constructing numerical overlap ... done (      0.0 sec)
Inverting numerical overlap    ... done (      0.0 sec)
Obtaining analytic overlap     ... done (      0.0 sec)
Final contraction and storage  ... done (      0.0 sec)


General Integration Accuracy     IntAcc      ...  3.670
Radial Grid Type                 RadialGrid  ... Gauss-Chebyshev
Angular Grid (max. acc.)         AngularGrid ... Lebedev-50
Angular grid pruning method      GridPruning ... 3 (G Style)
Weight generation scheme         WeightScheme... Becke
Basis function cutoff            BFCut       ...    1.0000e-11
Integration weight cutoff        WCut        ...    1.0000e-14
Grids for H and He will be reduced by one unit

# of grid points (after initial pruning)     ...   3566 (   0.0 sec)
# of grid points (after weights+screening)   ...   3487 (   0.0 sec)
nearest neighbour list constructed           ...    0.0 sec
Grid point re-assignment to atoms done       ...    0.0 sec
Grid point division into batches done        ...    0.0 sec
Reduced shell lists constructed in    0.0 sec

Total number of grid points                  ...     3487
Total number of batches                      ...       56
Average number of points per batch           ...       62
Average number of grid points per atom       ...      581
Average number of shells per batch           ...    19.38 (66.81%)
Average number of basis functions per batch  ...    40.12 (65.78%)
Average number of large shells per batch     ...    16.75 (86.45%)
Average number of large basis fcns per batch ...    35.00 (87.23%)
Maximum spatial batch extension              ...  13.54, 22.67, 22.67 au
Average spatial batch extension              ...   1.08,  1.41,  1.47 au

Overlap Fitting                  UseSFitting ... on
Constructing numerical overlap ... done (      0.0 sec)
Inverting numerical overlap    ... done (      0.0 sec)
Obtaining analytic overlap     ... done (      0.0 sec)
Final contraction and storage  ... done (      0.0 sec)


General Integration Accuracy     IntAcc      ...  4.010
Radial Grid Type                 RadialGrid  ... Gauss-Chebyshev
Angular Grid (max. acc.)         AngularGrid ... Lebedev-110
Angular grid pruning method      GridPruning ... 3 (G Style)
Weight generation scheme         WeightScheme... Becke
Basis function cutoff            BFCut       ...    1.0000e-11
Integration weight cutoff        WCut        ...    1.0000e-14
Grids for H and He will be reduced by one unit

# of grid points (after initial pruning)     ...   6574 (   0.0 sec)
# of grid points (after weights+screening)   ...   6418 (   0.0 sec)
nearest neighbour list constructed           ...    0.0 sec
Grid point re-assignment to atoms done       ...    0.0 sec
Grid point division into batches done        ...    0.0 sec
Reduced shell lists constructed in    0.0 sec

Total number of grid points                  ...     6418
Total number of batches                      ...      103
Average number of points per batch           ...       62
Average number of grid points per atom       ...     1070
Average number of shells per batch           ...    18.79 (64.78%)
Average number of basis functions per batch  ...    38.93 (63.82%)
Average number of large shells per batch     ...    15.14 (80.61%)
[...]

Fock matrix formation       ....       1.991 sec  ( 82.8%)
  Split-RI-J                ....       0.551 sec  ( 27.7% of F)
  Chain of spheres X        ....       0.333 sec  ( 16.7% of F)
  COS-X 1 center corr.      ....       0.000 sec  (  0.0% of F)
  XC integration            ....       0.055 sec  (  2.8% of F)
    Basis function eval.    ....       0.014 sec  ( 24.9% of XC)
    Density eval.           ....       0.004 sec  (  7.8% of XC)
    XC-Functional eval.     ....       0.005 sec  (  8.2% of XC)
    XC-Potential eval.      ....       0.004 sec  (  8.0% of XC)
Diagonalization             ....       0.000 sec  (  0.0%)
Density matrix formation    ....       0.001 sec  (  0.0%)
Population analysis         ....       0.002 sec  (  0.1%)
Initial guess               ....       0.003 sec  (  0.1%)
Orbital Transformation      ....       0.000 sec  (  0.0%)
Orbital Orthonormalization  ....       0.001 sec  (  0.0%)
DIIS solution               ....       0.000 sec  (  0.0%)
SOSCF solution              ....       0.001 sec  (  0.1%)
Grid generation             ....       0.262 sec  ( 10.9%)


-------------------------------------------------------------------------------
                          DFT DISPERSION CORRECTION                            
                                                                               
                              DFTD3 V3.1  Rev 1                                
                          USING Becke-Johnson damping                          
-------------------------------------------------------------------------------
The PBE0 functional is recognized
Active option DFTDOPT                   ...         4   

molecular C6(AA) [au] = 484.497399 


            DFT-D V3
 parameters
 s6 scaling factor         :     1.0000 
 a1 scaling factor         :     0.4145 
 s8 scaling factor         :     1.2177 
 a2 scaling factor         :     4.8593 
 ad hoc parameters k1-k3   :    16.0000     1.3333    -4.0000 

 Edisp/kcal,au: -1.508881277077  -0.002404555116 
 E6   /kcal   :  -0.953386200 
 E8   /kcal   :  -0.555495077 
 % E8         :  36.815028818 

-------------------------   ----------------
Dispersion correction           -0.002404555
-------------------------   ----------------


-------------------------   --------------------
FINAL SINGLE POINT ENERGY      -599.478962695319
-------------------------   --------------------

                                *** OPTIMIZATION RUN DONE ***

                            ***************************************
                            *     ORCA property calculations      *
                            ***************************************

                                    ---------------------
                                    Active property flags
                                    ---------------------
   (+) Dipole Moment


------------------------------------------------------------------------------
                       ORCA ELECTRIC PROPERTIES CALCULATION
------------------------------------------------------------------------------

Dipole Moment Calculation                       ... on
Quadrupole Moment Calculation                   ... off
Polarizability Calculation                      ... off
GBWName                                         ... get_orca_ts_guess_coarse_TS_orca_opt.gbw
Electron density file                           ... get_orca_ts_guess_coarse_TS_orca_opt.scfp.tmp
The origin for moment calculation is the CENTER OF MASS  = ( 0.143111,  0.083420  0.000306)

-------------
DIPOLE MOMENT
-------------
                                X             Y             Z
Electronic contribution:      2.97666       0.26876      -0.00813
Nuclear contribution   :     -1.57679      -0.24176      -0.00490
                        -----------------------------------------
Total Dipole Moment    :      1.39987       0.02700      -0.01304
                        -----------------------------------------
Magnitude (a.u.)       :      1.40019
Magnitude (Debye)      :      3.55900



--------------------
Rotational spectrum 
--------------------
 
Rotational constants in cm-1:     4.752666     0.076938     0.076923 
Rotational constants in MHz : 142481.346267  2306.540833  2306.101617 

 Dipole components along the rotational axes: 
x,y,z [a.u.] :    -1.399094     0.055314     0.001863 
x,y,z [Debye]:    -3.556215     0.140597     0.004734 

 


           ************************************************************
           *        Program running with 8 parallel MPI-processes     *
           *              working on a common directory               *
           ************************************************************

-------------------------------------------------------------------------------
                               ORCA SCF HESSIAN
-------------------------------------------------------------------------------

Hessian of the Kohn-Sham DFT energy:
Kohn-Sham wavefunction type                      ... RKS
Hartree-Fock exchange scaling                    ...    0.250
Number of operators                              ...    1
Number of atoms                                  ...    6
Basis set dimensions                             ...   61
Integral neglect threshold                       ... 2.5e-11
Integral primitive cutoff                        ... 2.5e-12

Setting up DFT Hessian calculations              ... 
Electron density on the grid                     ... found on disk
Electron density on the final grid               ... found on disk
Building xc-kernel on the grid                   ... done   (      0.0 sec)
Building xc-kernel on the final grid             ... done   (      0.0 sec)
                                                     done   (      0.0 sec)

Nuclear repulsion Hessian                        ... done   (      0.0 sec)
C-PCM contribution to the Fock matrix            ... done   (      0.4 sec)

----------------------------------------------
Forming right-hand sides of CP-SCF equations     ...
----------------------------------------------
One electron integral derivatives                ... done   (      0.1 sec)
Transforming the overlap derivative matrices     ... done   (      0.0 sec)
Adding tr(S(x)F(y) C-PCM term to the hessian     ... done   (      0.2 sec)
Making the Q(x) pseudodensities                  ... done   (      0.0 sec)
Adding the E*S(x)*S(y) terms to the Hessian      ... done   (      0.0 sec)
Calculating energy weighted overlap derivatives  ... done   (      0.0 sec)
Two electron integral derivatives (RI)           ... done   (      0.3 sec)
Exchange-correlation integral derivatives        ... done   (      0.4 sec)
tr(F(y)Q(x)) contribution to the Hessian         ... done   (      0.0 sec)
Response fock operator R(S(x)) (RIJCOSX)         ... done   (      0.4 sec)
XC Response fock operator R(S(x))                ... done   (      0.1 sec)
tr(F(y)S(x)) contribution to the Hessian         ... done   (      0.0 sec)
Transforming and finalizing RHSs                 ... done   (      0.0 sec)

----------------------------------------------
Solving the CP-SCF equations (RIJCOSX)           ...
----------------------------------------------
     CP-SCF ITERATION   0: 
     CP-SCF ITERATION   1:      0.000465013505
     CP-SCF ITERATION   2:      0.000079586160
     CP-SCF ITERATION   3:      0.000004618188
     CP-SCF ITERATION   4:      0.000000169068
     CP-SCF ITERATION   5:      0.000000004103

                                                 ... done   (      2.9 sec)
Forming perturbed density Hessian contributions  ... done   (      0.0 sec)
Calculating [Q*(d^2 A/dXdY)*Q  ] C-PCM term      ... done   (      0.0 sec)
Calculating [d^2(V_N)/(dXdY)*Q ] C-PCM term      ... done   (      0.0 sec)
Calculating [d^2(V_el)/(dXdY)*Q] C-PCM term      ... done   (      0.1 sec)
Calculating C-PCM term that depends on dQ/dX     ... done   (      0.0 sec)
2nd integral derivative contribs (RI)            ... done   (      0.7 sec)
Exchange-correlation Hessian                     ... done   (      0.5 sec)
Dispersion correction in the Hessian             ... done   (      0.5 sec)
Dipol derivatives                                ... done   (      0.1 sec)

Total SCF Hessian time: 0 days 0 hours 0 min 7 sec 

Writing the Hessian file to the disk             ... done


Maximum memory used throughout the entire calculation: 121.9 MB

-----------------------
VIBRATIONAL FREQUENCIES
-----------------------

Scaling factor for frequencies =  1.000000000  (already applied!)

   0:         0.00 cm**-1
   1:         0.00 cm**-1
   2:         0.00 cm**-1
   3:         0.00 cm**-1
   4:         0.00 cm**-1
   5:         0.00 cm**-1
   6:      -512.14 cm**-1 ***imaginary mode***
   7:       227.24 cm**-1
   8:       237.22 cm**-1
   9:       290.42 cm**-1
  10:       922.44 cm**-1
  11:       926.14 cm**-1
  12:      1041.62 cm**-1
  13:      1320.04 cm**-1
  14:      1332.30 cm**-1
  15:      3174.00 cm**-1
  16:      3384.39 cm**-1
  17:      3405.10 cm**-1


------------
NORMAL MODES
------------

These modes are the Cartesian displacements weighted by the diagonal matrix
M(i,i)=1/sqrt(m[i]) where m[i] is the mass of the displaced atom
Thus, these vectors are normalized but *not* orthogonal

                  0          1          2          3          4          5    
      0       0.000000   0.000000   0.000000   0.000000   0.000000   0.000000
      1       0.000000   0.000000   0.000000   0.000000   0.000000   0.000000
      2       0.000000   0.000000   0.000000   0.000000   0.000000   0.000000
      3       0.000000   0.000000   0.000000   0.000000   0.000000   0.000000
      4       0.000000   0.000000   0.000000   0.000000   0.000000   0.000000
      5       0.000000   0.000000   0.000000   0.000000   0.000000   0.000000
      6       0.000000   0.000000   0.000000   0.000000   0.000000   0.000000
      7       0.000000   0.000000   0.000000   0.000000   0.000000   0.000000
      8       0.000000   0.000000   0.000000   0.000000   0.000000   0.000000
      9       0.000000   0.000000   0.000000   0.000000   0.000000   0.000000
     10       0.000000   0.000000   0.000000   0.000000   0.000000   0.000000
     11       0.000000   0.000000   0.000000   0.000000   0.000000   0.000000
     12       0.000000   0.000000   0.000000   0.000000   0.000000   0.000000
     13       0.000000   0.000000   0.000000   0.000000   0.000000   0.000000
     14       0.000000   0.000000   0.000000   0.000000   0.000000   0.000000
     15       0.000000   0.000000   0.000000   0.000000   0.000000   0.000000
     16       0.000000   0.000000   0.000000   0.000000   0.000000   0.000000
     17       0.000000   0.000000   0.000000   0.000000   0.000000   0.000000
                  6          7          8          9         10         11    
      0      -0.268867  -0.004269  -0.016744   0.815508  -0.000789  -0.004228
      1       0.002216   0.005923   0.194929   0.060653  -0.001373  -0.010382
      2       0.003863  -0.191751   0.006434  -0.006756  -0.009710   0.001476
      3       0.883268   0.005228   0.006266   0.161253   0.002125   0.010914
      4       0.033687  -0.014437  -0.464400  -0.022568  -0.004699  -0.034693
      5      -0.008356   0.453636  -0.015076   0.004297  -0.035703   0.004537
      6      -0.141286   0.000247   0.004220  -0.502405  -0.000051  -0.001461
      7      -0.008217   0.003000   0.094666  -0.022473   0.001699   0.012354
      8       0.001102  -0.092052   0.003027   0.001798   0.012642  -0.001652
      9      -0.108209  -0.087063   0.081005   0.107398  -0.747284  -0.315984
     10       0.000556   0.068184  -0.482659  -0.025650  -0.059885   0.044000
     11       0.066808   0.423202  -0.017687   0.011397   0.045537  -0.021861
     12      -0.127170   0.095230   0.073146   0.115060   0.642341  -0.487387
     13       0.000523  -0.099171  -0.496091  -0.029782   0.069219   0.028957
     14      -0.077390   0.424987  -0.021559  -0.004060   0.042894   0.012283
     15      -0.252692   0.001329  -0.061660   0.156438   0.096286   0.804395
     16      -0.155251  -0.014143  -0.491042  -0.028379   0.012784   0.101602
     17      -0.001437   0.598017  -0.008838   0.005548   0.075356  -0.014190
                 12         13         14         15         16         17    
      0       0.042145   0.000151   0.000538   0.000232   0.000001   0.000043
      1       0.001290   0.000002   0.001676  -0.000040   0.000008   0.000796
      2      -0.000311   0.001682   0.000006   0.000006   0.000797  -0.000028
      3       0.003779  -0.000579   0.005426   0.012010  -0.000210   0.008720
      4       0.001347  -0.000853  -0.090664   0.005885  -0.002231  -0.103236
      5       0.000375  -0.091941   0.000695  -0.000116  -0.103275   0.002286
      6       0.025009  -0.000007  -0.000117  -0.000083  -0.000004  -0.000053
      7       0.002286   0.000004  -0.000040  -0.000006   0.000002   0.000392
      8      -0.000160   0.000143   0.000023   0.000008   0.000376  -0.000015
      9      -0.575722   0.115763   0.009416  -0.029740   0.038453   0.020618
     10      -0.013320  -0.380961   0.571829  -0.306572   0.367560   0.186663
     11       0.042812   0.134397  -0.396838  -0.510018   0.602590   0.316931
     12      -0.583333  -0.114877   0.011715  -0.026532  -0.034395   0.019376
     13      -0.014711   0.380756   0.583406  -0.294041  -0.349570   0.185897
     14      -0.038788   0.123529   0.383664   0.517106   0.605105  -0.333532
     15      -0.559915   0.003405  -0.091825  -0.088292  -0.001440  -0.142843
     16      -0.092723   0.010216  -0.105088   0.531447   0.008354   0.828778
     17       0.002998   0.800875   0.003954  -0.006099  -0.005348  -0.009602


-----------
IR SPECTRUM
-----------

 Mode    freq (cm**-1)   T**2         TX         TY         TZ
-------------------------------------------------------------------
   7:       227.24   25.514820  (  0.129550  -0.167538   5.046778)
   8:       237.22   27.884220  ( -0.685774  -5.233773  -0.146833)
   9:       290.42    2.086427  ( -1.429324  -0.206348   0.029666)
  10:       922.44    0.837720  (  0.218340   0.145940   0.876783)
  11:       926.14    2.573512  (  0.996249   1.247507  -0.157241)
  12:      1041.62    5.460118  (  2.333864   0.111282  -0.028477)
  13:      1320.04    8.706919  (  0.000652   0.018471   2.950691)
  14:      1332.30   10.325749  ( -0.344143   3.194577  -0.044668)
  15:      3174.00    1.367845  (  1.132859   0.289261   0.028341)
  16:      3384.39    0.028209  ( -0.053739  -0.022040  -0.157593)
  17:      3405.10    0.030214  ( -0.102886   0.139303  -0.014929)

The first frequency considered to be a vibration is 7
The total number of vibrations considered is 11


--------------------------
THERMOCHEMISTRY AT 298.15K
--------------------------

Temperature         ... 298.15 K
Pressure            ... 1.00 atm
Total Mass          ... 69.49 AMU

Throughout the following assumptions are being made:
  (1) The electronic state is orbitally nondegenerate
  (2) There are no thermally accessible electronically excited states
  (3) Hindered rotations indicated by low frequency modes are not
      treated as such but are treated as vibrations and this may
      cause some error
  (4) All equations used are the standard statistical mechanics
      equations for an ideal gas
  (5) All vibrations are strictly harmonic

freq.     227.24  E(vib)   ...       0.33 
freq.     237.22  E(vib)   ...       0.32 
freq.     290.42  E(vib)   ...       0.27 
freq.     922.44  E(vib)   ...       0.03 
freq.     926.14  E(vib)   ...       0.03 
freq.    1041.62  E(vib)   ...       0.02 
freq.    1320.04  E(vib)   ...       0.01 
freq.    1332.30  E(vib)   ...       0.01 
freq.    3174.00  E(vib)   ...       0.00 
freq.    3384.39  E(vib)   ...       0.00 
freq.    3405.10  E(vib)   ...       0.00 

------------
INNER ENERGY
------------

The inner energy is: U= E(el) + E(ZPE) + E(vib) + E(rot) + E(trans)
    E(el)   - is the total energy from the electronic structure calculation
              = E(kin-el) + E(nuc-el) + E(el-el) + E(nuc-nuc)
    E(ZPE)  - the the zero temperature vibrational energy from the frequency calculation
    E(vib)  - the the finite temperature correction to E(ZPE) due to population
              of excited vibrational states
    E(rot)  - is the rotational thermal energy
    E(trans)- is the translational thermal energy

Summary of contributions to the inner energy U:
Electronic energy                ...   -599.47896270 Eh
Zero point energy                ...      0.03704511 Eh      23.25 kcal/mol
Thermal vibrational correction   ...      0.00160627 Eh       1.01 kcal/mol
Thermal rotational correction    ...      0.00141627 Eh       0.89 kcal/mol
Thermal translational correction ...      0.00141627 Eh       0.89 kcal/mol
-----------------------------------------------------------------------
Total thermal energy                   -599.43747878 Eh


Summary of corrections to the electronic energy:
(perhaps to be used in another calculation)
Total thermal correction                  0.00443881 Eh       2.79 kcal/mol
Non-thermal (ZPE) correction              0.03704511 Eh      23.25 kcal/mol
-----------------------------------------------------------------------
Total correction                          0.04148392 Eh      26.03 kcal/mol


--------
ENTHALPY
--------

The enthalpy is H = U + kB*T
                kB is Boltzmann's constant
Total free energy                 ...   -599.43747878 Eh 
Thermal Enthalpy correction       ...      0.00094421 Eh       0.59 kcal/mol
-----------------------------------------------------------------------
Total Enthalpy                    ...   -599.43653457 Eh


Note: Rotational entropy computed according to Herzberg 
Infrared and Raman Spectra, Chapter V,1, Van Nostrand Reinhold, 1945 
Point Group:  C1, Symmetry Number:   1  
Rotational constants in cm-1:     4.752666     0.076938     0.076923 

Vibrational entropy computed according to the QRRHO of S. Grimme
Chem.Eur.J. 2012 18 9955


-------
ENTROPY
-------

The entropy contributions are T*S = T*(S(el)+S(vib)+S(rot)+S(trans))
     S(el)   - electronic entropy
     S(vib)  - vibrational entropy
     S(rot)  - rotational entropy
     S(trans)- translational entropy
The entropies will be listed as mutliplied by the temperature to get
units of energy

Electronic entropy                ...      0.00000000 Eh      0.00 kcal/mol
Vibrational entropy               ...      0.00265717 Eh      1.67 kcal/mol
Rotational entropy                ...      0.01119664 Eh      7.03 kcal/mol
Translational entropy             ...      0.01835566 Eh     11.52 kcal/mol
-----------------------------------------------------------------------
Final entropy term                ...      0.03220947 Eh     20.21 kcal/mol


-------------------
GIBBS FREE ENTHALPY
-------------------

The Gibbs free enthalpy is G = H - T*S

Total enthalpy                    ...   -599.43653457 Eh 
Total entropy correction          ...     -0.03220947 Eh    -20.21 kcal/mol
-----------------------------------------------------------------------
Final Gibbs free enthalpy         ...   -599.46874404 Eh

For completeness - the Gibbs free enthalpy minus the electronic energy
G-E(el)                           ...      0.01021865 Eh      6.41 kcal/mol


Timings for individual modules:

Sum of individual times         ...       52.098 sec (=   0.868 min)
GTO integral calculation        ...        5.250 sec (=   0.087 min)  10.1 %
SCF iterations                  ...       25.402 sec (=   0.423 min)  48.8 %
SCF Gradient evaluation         ...        6.581 sec (=   0.110 min)  12.6 %
Geometry relaxation             ...        0.258 sec (=   0.004 min)   0.5 %
Analytical frequency calculation...       14.608 sec (=   0.243 min)  28.0 %
                             ****ORCA TERMINATED NORMALLY****
TOTAL RUN TIME: 0 days 0 hours 0 minutes 54 seconds 306 msec
