
                                 *****************
                                 * O   R   C   A *
                                 *****************

           --- An Ab Initio, DFT and Semiempirical electronic structure package ---

                  #######################################################
                  #                        -***-                        #
                  #          Department of theory and spectroscopy      #
                  #               Directorship: Frank Neese             #
                  #        Max Planck Institute fuer Kohlenforschung    #
                  #                Kaiser Wilhelm Platz 1               #
                  #                 D-45470 Muelheim/Ruhr               #
                  #                      Germany                        #
                  #                                                     #
                  #                  All rights reserved                #
                  #                        -***-                        #
                  #######################################################


                         Program Version 4.1.1  - RELEASE  -


 With contributions from (in alphabetic order):
   Daniel Aravena         : Magnetic Properties
   Michael Atanasov       : Ab Initio Ligand Field Theory
   Alexander A. Auer      : GIAO ZORA
   Ute Becker             : Parallelization
   Giovanni Bistoni       : ED, Open-shell LED
   Martin Brehm           : Molecular dynamics
   Dmytro Bykov           : SCF Hessian
   Vijay G. Chilkuri      : MRCI spin determinant printing
   Dipayan Datta          : RHF DLPNO-CCSD density
   Achintya Kumar Dutta   : EOM-CC, STEOM-CC
   Dmitry Ganyushin       : Spin-Orbit,Spin-Spin,Magnetic field MRCI
   Miquel Garcia          : C-PCM Hessian
   Yang Guo               : DLPNO-NEVPT2, CIM, IAO-localization
   Andreas Hansen         : Spin unrestricted coupled pair/coupled cluster methods
   Benjamin Helmich-Paris : CASSCF linear response (MC-RPA)
   Lee Huntington         : MR-EOM, pCC
   Robert Izsak           : Overlap fitted RIJCOSX, COSX-SCS-MP3, EOM
   Christian Kollmar      : KDIIS, OOCD, Brueckner-CCSD(T), CCSD density
   Simone Kossmann        : Meta GGA functionals, TD-DFT gradient, OOMP2, MP2 Hessian
   Martin Krupicka        : AUTO-CI
   Lucas Lang             : DCDCAS
   Dagmar Lenk            : GEPOL surface, SMD
   Dimitrios Liakos       : Extrapolation schemes; parallel MDCI
   Dimitrios Manganas     : ROCIS; embedding schemes
   Dimitrios Pantazis     : SARC Basis sets
   Taras Petrenko         : DFT Hessian,TD-DFT gradient, ASA, ECA, R-Raman, ABS, FL, XAS/XES, NRVS
   Peter Pinski           : DLPNO-MP2, DLPNO-MP2 Gradient
   Christoph Reimann      : Effective Core Potentials
   Marius Retegan         : Local ZFS, SOC
   Christoph Riplinger    : Optimizer, TS searches, QM/MM, DLPNO-CCSD(T), (RO)-DLPNO pert. Triples
   Tobias Risthaus        : Range-separated hybrids, TD-DFT gradient, RPA, STAB
   Michael Roemelt        : Restricted open shell CIS
   Masaaki Saitow         : Open-shell DLPNO
   Barbara Sandhoefer     : DKH picture change effects
   Avijit Sen             : IP-ROCIS
   Kantharuban Sivalingam : CASSCF convergence, NEVPT2, FIC-MRCI
   Bernardo de Souza      : ESD, SOC TD-DFT
   Georgi Stoychev        : AutoAux, RI-MP2 NMR
   Willem Van den Heuvel  : Paramagnetic NMR
   Boris Wezisla          : Elementary symmetry handling
   Frank Wennmohs         : Technical directorship


 We gratefully acknowledge several colleagues who have allowed us to
 interface, adapt or use parts of their codes:
   Stefan Grimme, W. Hujo, H. Kruse,             : VdW corrections, initial TS optimization,
                  C. Bannwarth                     DFT functionals, gCP, sTDA/sTD-DF
   Ed Valeev                                     : LibInt (2-el integral package), F12 methods
   Garnet Chan, S. Sharma, J. Yang, R. Olivares  : DMRG
   Ulf Ekstrom                                   : XCFun DFT Library
   Mihaly Kallay                                 : mrcc  (arbitrary order and MRCC methods)
   Andreas Klamt, Michael Diedenhofen            : otool_cosmo (COSMO solvation model)
   Jiri Pittner, Ondrej Demel                    : Mk-CCSD
   Frank Weinhold                                : gennbo (NPA and NBO analysis)
   Christopher J. Cramer and Donald G. Truhlar   : smd solvation model
   Lars Goerigk                                  : TD-DFT with DH, B97 family of functionals
   V. Asgeirsson, H. Jonsson                     : NEB implementation
   FAccTs GmbH                                   : IRC, NEB, NEB-TS, Multilevel


 Your calculation uses the libint2 library for the computation of 2-el integrals
 For citations please refer to: http://libint.valeyev.net

 This ORCA versions uses:
   CBLAS   interface :  Fast vector & matrix operations
   LAPACKE interface :  Fast linear algebra routines
   SCALAPACK package :  Parallel linear algebra routines


Your calculation utilizes the atom-pairwise dispersion correction
with the Becke-Johnson damping scheme (D3BJ)
Cite in your paper:
S.Grimme, S.Ehrlich, L.Goerigk, J Comput Chem, (2011), 32, 1456–1465 
S.Grimme, J.Antony, S.Ehrlich and H.Krieg, J.Chem.Phys., 132, (2010), 154104 
   

Your calculation utilizes the SMD solvation module
Please cite in your paper:
A.V. Marenich, C.J. Cramer, D.G. Truhlar J. Phys. Chem. B, 113, (2009), 6378 

----- Orbital basis set information -----
Your calculation utilizes the basis: def2-SVP
   F. Weigend and R. Ahlrichs, Phys. Chem. Chem. Phys. 7, 3297 (2005).

----- AuxJ basis set information -----
Your calculation utilizes the auxiliary basis: def2/J
   F. Weigend, Phys. Chem. Chem. Phys. 8, 1057 (2006).

================================================================================
                                        WARNINGS
                       Please study these warnings very carefully!
================================================================================


WARNING: Geometry Optimization
  ===> : Switching off AutoStart
         For restart on a previous wavefunction, please use MOREAD

INFO   : the flag for use of LIBINT has been found!

================================================================================
                                       INPUT FILE
================================================================================
NAME = ts_guess_orca_constrained_opt.inp
|  1> ! Opt PBE0 RIJCOSX D3BJ def2-SVP def2/J PAL8
|  2> %cpcm
|  3>  smd true
|  4>  SMDsolvent "water"
|  5>  end
|  6> %geom Constraints
|  7> { B 2 1 2.1359605669302515 C }
|  8> { B 0 1 1.9986971249674124 C }
|  9>     end
| 10> end
| 11> %geom MaxIter 100 end
| 12> %scf 
| 13> maxiter 250 
| 14> end
| 15> % maxcore 4000
| 16> *xyz -1 1
| 17> F  -3.54960000 -0.10680000  0.05080000 
| 18> C   0.00000000  0.00000000  0.00000000 
| 19> Cl  1.77480000  0.05340000 -0.02540000 
| 20> H  -0.37470000 -0.55370000 -0.88530000 
| 21> H  -0.36410000 -0.51530000  0.91150000 
| 22> H  -0.43910000  1.02050000 -0.02630000 
| 23> *
| 24> 
| 25>                          ****END OF INPUT****
================================================================================

                       *****************************
                       * Geometry Optimization Run *
                       *****************************

Geometry optimization settings:
Update method            Update   .... BFGS
Choice of coordinates    CoordSys .... Z-matrix Internals
Initial Hessian          InHess   .... Almoef's Model

Convergence Tolerances:
Energy Change            TolE     ....  5.0000e-06 Eh
Max. Gradient            TolMAXG  ....  3.0000e-04 Eh/bohr
RMS Gradient             TolRMSG  ....  1.0000e-04 Eh/bohr
Max. Displacement        TolMAXD  ....  4.0000e-03 bohr
RMS Displacement         TolRMSD  ....  2.0000e-03 bohr

------------------------------------------------------------------------------
                        ORCA OPTIMIZATION COORDINATE SETUP
------------------------------------------------------------------------------

The optimization will be done in new redundant internal coordinates
Making redundant internal coordinates   ...  (new redundants) done
Evaluating the initial hessian          ...  (Almloef) done
Evaluating the coordinates              ...  done
Calculating the B-matrix                .... done
Calculating the G-matrix                .... done
Diagonalizing the G-matrix              .... done
Imposing constraints:
 Iter   0:  RMS(Cart)=    0.2760004002 RMS(Int)=    1.1470499044
 Iter   1:  RMS(Cart)=    0.1388115132 RMS(Int)=    0.6115088130
 Iter   2:  RMS(Cart)=    0.0704544281 RMS(Int)=    0.3106686021
 Iter   3:  RMS(Cart)=    0.0375768243 RMS(Int)=    0.1612464658
 Iter   4:  RMS(Cart)=    0.0229970251 RMS(Int)=    0.0851362170
 Iter   5:  RMS(Cart)=    0.0121422472 RMS(Int)=    0.0449510050
 Iter   6:  RMS(Cart)=    0.0064109849 RMS(Int)=    0.0237336739
 Iter   7:  RMS(Cart)=    0.0033849374 RMS(Int)=    0.0125311465
 Iter   8:  RMS(Cart)=    0.0017872144 RMS(Int)=    0.0066163245
 Iter   9:  RMS(Cart)=    0.0009436322 RMS(Int)=    0.0034933561
 Iter  10:  RMS(Cart)=    0.0004982288 RMS(Int)=    0.0018444588
 Iter  11:  RMS(Cart)=    0.0002630601 RMS(Int)=    0.0009738568
 Iter  12:  RMS(Cart)=    0.0001388932 RMS(Int)=    0.0005141872
 Iter  13:  RMS(Cart)=    0.0000733343 RMS(Int)=    0.0002714860
 Iter  14:  RMS(Cart)=    0.0000387198 RMS(Int)=    0.0001433420
 Iter  15:  RMS(Cart)=    0.0000204437 RMS(Int)=    0.0000756832
 Iter  16:  RMS(Cart)=    0.0000107941 RMS(Int)=    0.0000399600
 Iter  17:  RMS(Cart)=    0.0000056992 RMS(Int)=    0.0000210985
 Iter  18:  RMS(Cart)=    0.0000030091 RMS(Int)=    0.0000111398
 Iter  19:  RMS(Cart)=    0.0000015888 RMS(Int)=    0.0000058817
 Iter  20:  RMS(Cart)=    0.0000008389 RMS(Int)=    0.0000031055
 Iter  21:  RMS(Cart)=    0.0000004429 RMS(Int)=    0.0000016397
 Iter  22:  RMS(Cart)=    0.0000002339 RMS(Int)=    0.0000008657
 Iter  23:  RMS(Cart)=    0.0000001235 RMS(Int)=    0.0000004571
 Iter  24:  RMS(Cart)=    0.0000000652 RMS(Int)=    0.0000002413
 Iter  25:  RMS(Cart)=    0.0000000344 RMS(Int)=    0.0000001274
 Iter  26:  RMS(Cart)=    0.0000000182 RMS(Int)=    0.0000000673
CONVERGED
The first mode is                       ....    5
The number of degrees of freedom        ....   12
Storing new coordinates                 .... done

    -----------------------------------------------------------------
                    Redundant Internal Coordinates


    -----------------------------------------------------------------
         Definition                    Initial Value    Approx d2E/dq
    -----------------------------------------------------------------
      1. B(C   1,F   0)                  1.9987         0.000185 C 
      2. B(Cl  2,C   1)                  2.1360         0.339813 C 
      3. B(H   3,C   1)                  1.3926         0.335345   
      4. B(H   3,F   0)                  2.7793         0.000077   
      5. B(H   4,F   0)                  2.7573         0.000081   
      6. B(H   4,C   1)                  1.3846         0.336349   
      7. B(H   5,F   0)                  2.7443         0.000086   
      8. B(H   5,C   1)                  1.3810         0.333034   
      9. A(H   3,C   1,H   4)          110.7011         0.284568   
     10. A(Cl  2,C   1,H   5)           72.5072         0.328343   
     11. A(H   3,C   1,H   5)          110.7880         0.284130   
     12. A(H   4,C   1,H   5)          111.4880         0.284262   
     13. A(F   0,C   1,H   3)          108.7608         0.129792   
     14. A(F   0,C   1,H   4)          107.7860         0.129820   
     15. A(F   0,C   1,H   5)          107.1672         0.129728   
     16. A(Cl  2,C   1,H   3)           71.8637         0.328718   
     17. A(Cl  2,C   1,H   4)           71.9177         0.328881   
    -----------------------------------------------------------------

Number of atoms                         .... 6
Number of degrees of freedom            .... 17

         *************************************************************
         *                GEOMETRY OPTIMIZATION CYCLE   1            *
         *************************************************************
---------------------------------
CARTESIAN COORDINATES (ANGSTROEM)
---------------------------------
  F     -2.725491   -0.081385    0.042654
  C     -0.727900   -0.025994    0.005903
  Cl     1.406761    0.045863   -0.013824
  H     -0.282005   -0.698120   -1.129375
  H     -0.266380   -0.646076    1.154697
  H     -0.357685    1.303812   -0.034755

----------------------------
CARTESIAN COORDINATES (A.U.)
----------------------------
  NO LB      ZA    FRAG     MASS         X           Y           Z
   0 F     9.0000    0    18.998   -5.150432   -0.153795    0.080604
   1 C     6.0000    0    12.011   -1.375531   -0.049122    0.011155
   2 Cl   17.0000    0    35.453    2.658393    0.086668   -0.026123
   3 H     1.0000    0     1.008   -0.532913   -1.319256   -2.134210
   4 H     1.0000    0     1.008   -0.503385   -1.220906    2.182062
   5 H     1.0000    0     1.008   -0.675927    2.463848   -0.065678

--------------------------------
INTERNAL COORDINATES (ANGSTROEM)
--------------------------------
 F      0   0   0     0.000000000000     0.00000000     0.00000000
 C      1   0   0     3.551569658616     0.00000000     0.00000000
 Cl     2   1   0     1.775784829308   180.00000000     0.00000000
 H      2   1   3     1.109387159652    70.05237173     0.00000000
 H      2   1   4     1.108573475237    69.26802809   240.41943269
 H      2   1   5     1.111269881712    68.47168853   239.12554477

---------------------------
INTERNAL COORDINATES (A.U.)
---------------------------
 F      0   0   0     0.000000000000     0.00000000     0.00000000
 C      1   0   0     6.711494000328     0.00000000     0.00000000
 Cl     2   1   0     3.355747000164   180.00000000     0.00000000
 H      2   1   3     2.096437908230    70.05237173     0.00000000
 H      2   1   4     2.094900267528    69.26802809   240.41943269
 H      2   1   5     2.099995737311    68.47168853   239.12554477

---------------------
BASIS SET INFORMATION
---------------------
There are 4 groups of distinct atoms

 Group   1 Type F   : 7s4p1d contracted to 3s2p1d pattern {511/31/1}
 Group   2 Type C   : 7s4p1d contracted to 3s2p1d pattern {511/31/1}
 Group   3 Type Cl  : 10s7p1d contracted to 4s3p1d pattern {5311/511/1}
 Group   4 Type H   : 4s1p contracted to 2s1p pattern {31/1}

Atom   0F    basis set group =>   1
Atom   1C    basis set group =>   2
Atom   2Cl   basis set group =>   3
Atom   3H    basis set group =>   4
Atom   4H    basis set group =>   4
Atom   5H    basis set group =>   4
-------------------------------
AUXILIARY BASIS SET INFORMATION
-------------------------------
There are 4 groups of distinct atoms

 Group   1 Type F   : 12s5p4d2f1g contracted to 6s4p3d1f1g pattern {711111/2111/211/2/1}
 Group   2 Type C   : 12s5p4d2f1g contracted to 6s4p3d1f1g pattern {711111/2111/211/2/1}
 Group   3 Type Cl  : 14s5p5d2f1g contracted to 8s4p3d1f1g pattern {71111111/2111/311/2/1}
 Group   4 Type H   : 5s2p1d contracted to 3s1p1d pattern {311/2/1}

Atom   0F    basis set group =>   1
Atom   1C    basis set group =>   2
Atom   2Cl   basis set group =>   3
Atom   3H    basis set group =>   4
Atom   4H    basis set group =>   4
Atom   5H    basis set group =>   4


           ************************************************************
           *        Program running with 8 parallel MPI-processes     *
           *              working on a common directory               *
           ************************************************************
------------------------------------------------------------------------------
                           ORCA GTO INTEGRAL CALCULATION
                           -- RI-GTO INTEGRALS CHOSEN --
------------------------------------------------------------------------------

                         BASIS SET STATISTICS AND STARTUP INFO

Gaussian basis set:
 # of primitive gaussian shells          ...   57
 # of primitive gaussian functions       ...  105
 # of contracted shells                  ...   29
 # of contracted basis functions         ...   61
 Highest angular momentum                ...    2
 Maximum contraction depth               ...    5
Auxiliary gaussian basis set:
 # of primitive gaussian shells          ...   99
 # of primitive gaussian functions       ...  265
 # of contracted shells                  ...   62
 # of contracted aux-basis functions     ...  182
 Highest angular momentum                ...    4
 Maximum contraction depth               ...    7
Ratio of auxiliary to basis functions    ...  2.98
Integral package used                  ... LIBINT
 One Electron integrals                  ... done
 Ordering auxiliary basis shells         ... done
 Integral threshhold             Thresh  ...  2.500e-11
 Primitive cut-off               TCut    ...  2.500e-12
 Pre-screening matrix                    ... done
 Shell pair data                         ... 
 Ordering of the shell pairs             ... done (   0.000 sec) 419 of 435 pairs
 Determination of significant pairs      ... done (   0.000 sec)
 Creation of shell pair data             ... done (   0.000 sec)
 Storage of shell pair data              ... done (   0.001 sec)
 Shell pair data done in (   0.001 sec)
 Computing two index integrals           ... done
 Cholesky decomposition of the V-matrix  ... done


Timings:
 Total evaluation time                   ...   0.146 sec (  0.002 min)
 One electron matrix time                ...   0.016 sec (  0.000 min) = 10.6%
 Schwartz matrix evaluation time         ...   0.114 sec (  0.002 min) = 78.2%
 Two index repulsion integral time       ...   0.001 sec (  0.000 min) =  0.5%
 Cholesky decomposition of V             ...   0.001 sec (  0.000 min) =  0.5%
 Three index repulsion integral time     ...   0.000 sec (  0.000 min) =  0.0%



           ************************************************************
           *        Program running with 8 parallel MPI-processes     *
           *              working on a common directory               *
           ************************************************************
-------------------------------------------------------------------------------
                                 ORCA SCF
-------------------------------------------------------------------------------

------------
SCF SETTINGS
------------
Hamiltonian:
 Density Functional     Method          .... DFT(GTOs)
 Exchange Functional    Exchange        .... PBE
   PBE kappa parameter   XKappa         ....  0.804000
   PBE mue parameter    XMuePBE         ....  0.219520
 Correlation Functional Correlation     .... PBE
   PBE beta parameter  CBetaPBE         ....  0.066725
 LDA part of GGA corr.  LDAOpt          .... PW91-LDA
 Gradients option       PostSCFGGA      .... off
 Hybrid DFT is turned on
   Fraction HF Exchange ScalHFX         ....  0.250000
   Scaling of DF-GGA-X  ScalDFX         ....  0.750000
   Scaling of DF-GGA-C  ScalDFC         ....  1.000000
   Scaling of DF-LDA-C  ScalLDAC        ....  1.000000
   Perturbative correction              ....  0.000000
   Density functional embedding theory  .... OFF
   NL short-range parameter             ....  6.900000
 RI-approximation to the Coulomb term is turned on
   Number of auxiliary basis functions  .... 182
   RIJ-COSX (HFX calculated with COS-X)).... on


General Settings:
 Integral files         IntName         .... ts_guess_orca_constrained_opt
 Hartree-Fock type      HFTyp           .... RHF
 Total Charge           Charge          ....   -1
 Multiplicity           Mult            ....    1
 Number of Electrons    NEL             ....   36
 Basis Dimension        Dim             ....   61
 Nuclear Repulsion      ENuc            ....     84.3904349125 Eh

Convergence Acceleration:
 DIIS                   CNVDIIS         .... on
   Start iteration      DIISMaxIt       ....    12
   Startup error        DIISStart       ....  0.200000
   # of expansion vecs  DIISMaxEq       ....     5
   Bias factor          DIISBfac        ....   1.050
   Max. coefficient     DIISMaxC        ....  10.000
 Newton-Raphson         CNVNR           .... off
 SOSCF                  CNVSOSCF        .... on
   Start iteration      SOSCFMaxIt      ....   150
   Startup grad/error   SOSCFStart      ....  0.003300
 Level Shifting         CNVShift        .... on
   Level shift para.    LevelShift      ....    0.2500
   Turn off err/grad.   ShiftErr        ....    0.0010
 Zerner damping         CNVZerner       .... off
 Static damping         CNVDamp         .... on
   Fraction old density DampFac         ....    0.7000
   Max. Damping (<1)    DampMax         ....    0.9800
   Min. Damping (>=0)   DampMin         ....    0.0000
   Turn off err/grad.   DampErr         ....    0.1000
 Fernandez-Rico         CNVRico         .... off

SCF Procedure:
 Maximum # iterations   MaxIter         ....   250
 SCF integral mode      SCFMode         .... Direct
   Integral package                     .... LIBINT
 Reset frequency        DirectResetFreq ....    20
 Integral Threshold     Thresh          ....  2.500e-11 Eh
 Primitive CutOff       TCut            ....  2.500e-12 Eh

Convergence Tolerance:
 Convergence Check Mode ConvCheckMode   .... Total+1el-Energy
 Convergence forced     ConvForced      .... 0
 Energy Change          TolE            ....  1.000e-08 Eh
 1-El. energy change                    ....  1.000e-05 Eh
 Orbital Gradient       TolG            ....  1.000e-05
 Orbital Rotation angle TolX            ....  1.000e-05
 DIIS Error             TolErr          ....  5.000e-07


Diagonalization of the overlap matrix:
Smallest eigenvalue                        ... 2.088e-02
Time for diagonalization                   ...    0.002 sec
Threshold for overlap eigenvalues          ... 1.000e-08
Number of eigenvalues below threshold      ... 0
Time for construction of square roots      ...    0.001 sec
Total time needed                          ...    0.003 sec

-------------------
DFT GRID GENERATION
-------------------

General Integration Accuracy     IntAcc      ...  4.340
Radial Grid Type                 RadialGrid  ... Gauss-Chebyshev
Angular Grid (max. acc.)         AngularGrid ... Lebedev-110
Angular grid pruning method      GridPruning ... 3 (G Style)
Weight generation scheme         WeightScheme... Becke
Basis function cutoff            BFCut       ...    1.0000e-11
Integration weight cutoff        WCut        ...    1.0000e-14
Grids for H and He will be reduced by one unit

# of grid points (after initial pruning)     ...   7622 (   0.0 sec)
# of grid points (after weights+screening)   ...   7452 (   0.0 sec)
nearest neighbour list constructed           ...    0.0 sec
Grid point re-assignment to atoms done       ...    0.0 sec
Grid point division into batches done        ...    0.0 sec
Reduced shell lists constructed in    0.0 sec

Total number of grid points                  ...     7452
Total number of batches                      ...      119
Average number of points per batch           ...       62
Average number of grid points per atom       ...     1242
Average number of shells per batch           ...    17.56 (60.56%)
Average number of basis functions per batch  ...    36.44 (59.73%)
Average number of large shells per batch     ...    13.94 (79.36%)
Average number of large basis fcns per batch ...    28.06 (77.02%)
Maximum spatial batch extension              ...  12.95, 25.60, 21.03 au
Average spatial batch extension              ...   0.81,  1.19,  1.04 au

Time for grid setup =    0.021 sec

------------------------------
INITIAL GUESS: MODEL POTENTIAL
------------------------------
Loading Hartree-Fock densities                     ... done
Calculating cut-offs                               ... done
Setting up the integral package                    ... done
Initializing the effective Hamiltonian             ... done
Starting the Coulomb interaction                   ... done (   0.0 sec)
Reading the grid                                   ... done
Mapping shells                                     ... done
Starting the XC term evaluation                    ... done (   0.0 sec)
  promolecular density results
     # of electrons  =     34.998777292
     EX              =    -43.148301383
     EC              =     -1.227968149
     EX+EC           =    -44.376269532
Transforming the Hamiltonian                       ... done (   0.0 sec)
Diagonalizing the Hamiltonian                      ... done (   0.0 sec)
Back transforming the eigenvectors                 ... done (   0.0 sec)
Now organizing SCF variables                       ... done
                      ------------------
                      INITIAL GUESS DONE (   0.1 sec)
                      ------------------
--------------------
COSX GRID GENERATION
--------------------

General Integration Accuracy     IntAcc      ...  3.340
Radial Grid Type                 RadialGrid  ... Gauss-Chebyshev
Angular Grid (max. acc.)         AngularGrid ... Lebedev-50
Angular grid pruning method      GridPruning ... 3 (G Style)
Weight generation scheme         WeightScheme... Becke
Basis function cutoff            BFCut       ...    1.0000e-11
Integration weight cutoff        WCut        ...    1.0000e-14
Grids for H and He will be reduced by one unit

# of grid points (after initial pruning)     ...   2826 (   0.0 sec)
# of grid points (after weights+screening)   ...   2763 (   0.0 sec)
nearest neighbour list constructed           ...    0.0 sec
Grid point re-assignment to atoms done       ...    0.0 sec
Grid point division into batches done        ...    0.0 sec
Reduced shell lists constructed in    0.0 sec

Total number of grid points                  ...     2763
Total number of batches                      ...       47
Average number of points per batch           ...       58
Average number of grid points per atom       ...      460
Average number of shells per batch           ...    19.43 (67.00%)
Average number of basis functions per batch  ...    40.29 (66.04%)
Average number of large shells per batch     ...    15.86 (81.62%)
Average number of large basis fcns per batch ...    32.43 (80.50%)
Maximum spatial batch extension              ...  12.82, 20.72, 20.72 au
Average spatial batch extension              ...   1.18,  1.55,  1.59 au

Overlap Fitting                  UseSFitting ... on
Constructing numerical overlap ... done (      0.0 sec)
Inverting numerical overlap    ... done (      0.0 sec)
Obtaining analytic overlap     ... done (      0.0 sec)
Final contraction and storage  ... done (      0.0 sec)


General Integration Accuracy     IntAcc      ...  3.670
Radial Grid Type                 RadialGrid  ... Gauss-Chebyshev
Angular Grid (max. acc.)         AngularGrid ... Lebedev-50
Angular grid pruning method      GridPruning ... 3 (G Style)
Weight generation scheme         WeightScheme... Becke
Basis function cutoff            BFCut       ...    1.0000e-11
Integration weight cutoff        WCut        ...    1.0000e-14
Grids for H and He will be reduced by one unit

# of grid points (after initial pruning)     ...   3566 (   0.0 sec)
# of grid points (after weights+screening)   ...   3486 (   0.0 sec)
nearest neighbour list constructed           ...    0.0 sec
Grid point re-assignment to atoms done       ...    0.0 sec
Grid point division into batches done        ...    0.0 sec
Reduced shell lists constructed in    0.0 sec

Total number of grid points                  ...     3486
Total number of batches                      ...       58
Average number of points per batch           ...       60
Average number of grid points per atom       ...      581
Average number of shells per batch           ...    20.11 (69.35%)
Average number of basis functions per batch  ...    42.11 (69.03%)
Average number of large shells per batch     ...    16.44 (81.77%)
Average number of large basis fcns per batch ...    34.00 (80.74%)
Maximum spatial batch extension              ...  13.78, 22.67, 22.67 au
Average spatial batch extension              ...   1.13,  1.44,  1.48 au

Overlap Fitting                  UseSFitting ... on
Constructing numerical overlap ... done (      0.0 sec)
Inverting numerical overlap    ... done (      0.0 sec)
Obtaining analytic overlap     ... done (      0.0 sec)
Final contraction and storage  ... done (      0.0 sec)


General Integration Accuracy     IntAcc      ...  4.010
Radial Grid Type                 RadialGrid  ... Gauss-Chebyshev
Angular Grid (max. acc.)         AngularGrid ... Lebedev-110
Angular grid pruning method      GridPruning ... 3 (G Style)
Weight generation scheme         WeightScheme... Becke
Basis function cutoff            BFCut       ...    1.0000e-11
Integration weight cutoff        WCut        ...    1.0000e-14
Grids for H and He will be reduced by one unit

# of grid points (after initial pruning)     ...   6574 (   0.0 sec)
# of grid points (after weights+screening)   ...   6429 (   0.0 sec)
nearest neighbour list constructed           ...    0.0 sec
Grid point re-assignment to atoms done       ...    0.0 sec
Grid point division into batches done        ...    0.0 sec
Reduced shell lists constructed in    0.0 sec

Total number of grid points                  ...     6429
Total number of batches                      ...      105
Average number of points per batch           ...       61
Average number of grid points per atom       ...     1072
Average number of shells per batch           ...    18.53 (63.91%)
Average number of basis functions per batch  ...    38.67 (63.39%)
Average number of large shells per batch     ...    13.93 (75.18%)
Average number of large basis fcns per batch ...    27.80 (71.90%)
Maximum spatial batch extension              ...  12.71, 24.23, 19.90 au
Average spatial batch extension              ...   0.82,  1.22,  1.07 au

Overlap Fitting                  UseSFitting ... on
Constructing numerical overlap ... done (      0.0 sec)
Inverting numerical overlap    ... done (      0.0 sec)
Obtaining analytic overlap     ... done (      0.0 sec)
Final contraction and storage  ... done (      0.0 sec)

Time for X-Grid setup             =    0.097 sec

--------------------
CPCM SOLVATION MODEL
--------------------
CPCM parameters:
  Epsilon                                         ...      78.3550
  Refrac                                          ...       1.0000
  Rsolv                                           ...       1.3000
  Surface type                                    ...    GEPOL SES
  Epsilon function type                           ...         CPCM
Solvent:                                     ... WATER
SMD-CDS solvent descriptors:
  Soln                                       ...    1.3328
  Soln25                                     ...    1.3323
  Sola                                       ...    0.0000
  Solb                                       ...    0.0000
  Solg                                       ...    0.0000
  Solc                                       ...    0.0000
  Solh                                       ...    0.0000
Radii:
 Radius for F  used is    3.2692 Bohr (=   1.7300 Ang.)
 Radius for C  used is    3.4960 Bohr (=   1.8500 Ang.)
 Radius for Cl used is    4.4975 Bohr (=   2.3800 Ang.)
 Radius for H  used is    2.2677 Bohr (=   1.2000 Ang.)
Calculating surface                               ...        done! (  0.0s)
GEPOL surface points                              ...          248
GEPOL Volume                                      ...     623.5768
GEPOL Surface-area                                ...     396.7517
Calculating surface distance matrix               ...        done! (  0.0s)
Performing Cholesky decomposition & store         ...        done! (  0.0s)
Overall time for CPCM initialization              ...                 0.0s
--------------
SCF ITERATIONS
--------------
ITER       Energy         Delta-E        Max-DP      RMS-DP      [F,P]     Damp
               ***  Starting incremental Fock matrix formation  ***
  0   -599.2354658838   0.000000000000 0.09259188  0.00421724  0.3030912 0.7000
  1   -599.2812150782  -0.045749194373 0.05483546  0.00266631  0.1178878 0.7000
                               ***Turning on DIIS***
  2   -599.2977165490  -0.016501470808 0.10487440  0.00430109  0.0374827 0.0000
  3   -599.3274088432  -0.029692294223 0.03811780  0.00163325  0.0669095 0.0000
  4   -599.3319866496  -0.004577806389 0.01532974  0.00061320  0.0085655 0.0000
                      *** Initiating the SOSCF procedure ***
                           *** Shutting down DIIS ***
                      *** Re-Reading the Fockian *** 
                      *** Removing any level shift *** 
ITER      Energy       Delta-E        Grad      Rot      Max-DP    RMS-DP
  5   -599.33232142  -0.0003347657  0.000815  0.000815  0.001360  0.000095
               *** Restarting incremental Fock matrix formation ***
  6   -599.33231968   0.0000017357  0.000368  0.000770  0.001512  0.000082
  7   -599.33231960   0.0000000786  0.000418  0.000490  0.001006  0.000041
  8   -599.33232195  -0.0000023501  0.000055  0.000165  0.000134  0.000010
  9   -599.33232198  -0.0000000257  0.000031  0.000034  0.000069  0.000004
 10   -599.33232198  -0.0000000030  0.000015  0.000035  0.000037  0.000002
 11   -599.33232198  -0.0000000012  0.000012  0.000018  0.000031  0.000001
                  ***Gradient check signals convergence***
              ***Rediagonalizing the Fockian in SOSCF/NRSCF***

               *****************************************************
               *                     SUCCESS                       *
               *           SCF CONVERGED AFTER  12 CYCLES          *
               *****************************************************

Setting up the final grid:

General Integration Accuracy     IntAcc      ...  4.670
Radial Grid Type                 RadialGrid  ... Gauss-Chebyshev
Angular Grid (max. acc.)         AngularGrid ... Lebedev-302
Angular grid pruning method      GridPruning ... 3 (G Style)
Weight generation scheme         WeightScheme... Becke
Basis function cutoff            BFCut       ...    1.0000e-11
Integration weight cutoff        WCut        ...    1.0000e-14
Grids for H and He will be reduced by one unit

# of grid points (after initial pruning)     ...  29404 (   0.0 sec)
# of grid points (after weights+screening)   ...  28623 (   0.0 sec)
nearest neighbour list constructed           ...    0.0 sec
Grid point re-assignment to atoms done       ...    0.0 sec
Grid point division into batches done        ...    0.1 sec
Reduced shell lists constructed in    0.1 sec

Total number of grid points                  ...    28623
Total number of batches                      ...      451
Average number of points per batch           ...       63
Average number of grid points per atom       ...     4770
Average number of shells per batch           ...    15.48 (53.39%)
Average number of basis functions per batch  ...    31.45 (51.55%)
Average number of large shells per batch     ...    11.83 (76.39%)
Average number of large basis fcns per batch ...    23.79 (75.66%)
Maximum spatial batch extension              ...  15.72, 16.09, 16.09 au
Average spatial batch extension              ...   0.62,  0.67,  0.68 au

Final grid set up in    0.1 sec
Final integration                            ... done (   0.0 sec)
Change in XC energy                          ...     0.000282182
Integrated number of electrons               ...    35.999984495
Previous integrated no of electrons          ...    36.001371698
Old exchange energy                            =    -10.945776660 Eh
New exchange energy                            =    -10.945243614 Eh
Exchange energy change after final integration =      0.000533046 Eh
Total energy after final integration           =   -599.331506755 Eh
Final COS-X integration done in                =     0.071 sec

SMD CDS free energy correction energy :                 3.47458     Kcal/mol
Total Energy after SMD CDS correction =              -599.325969657 Eh

----------------
TOTAL SCF ENERGY
----------------

Total Energy       :         -599.32596966 Eh          -16308.48874 eV

Components:
Nuclear Repulsion  :           84.39043491 Eh            2296.38048 eV
Electronic Energy  :         -683.71640457 Eh          -18604.86922 eV
One Electron Energy:        -1005.60336947 Eh          -27363.85883 eV
Two Electron Energy:          321.88696490 Eh            8758.98961 eV
CPCM Dielectric    :           -0.10270630 Eh              -2.79478 eV
SMD CDS (Gcds)     :            0.00553710 Eh               0.15067 eV

Virial components:
Potential Energy   :        -1196.41964569 Eh          -32556.23369 eV
Kinetic Energy     :          597.09367603 Eh           16247.74494 eV
Virial Ratio       :            2.00373860


DFT components:
N(Alpha)           :       17.999992247365 electrons
N(Beta)            :       17.999992247365 electrons
N(Total)           :       35.999984494731 electrons
E(X)               :      -32.737626381171 Eh       
E(C)               :       -1.286060767336 Eh       
E(XC)              :      -34.023687148507 Eh       
DFET-embed. en.    :        0.000000000000 Eh       
CPCM Solvation Model Properties:
Surface-charge          :            0.98921434
Charge-correction       :           -0.00174100 Eh              -0.04738 eV
Free-energy (cav+disp)  :            0.00330272 Eh               0.08987 eV
Corrected G(solv)       :         -599.32440794 Eh          -16308.44625 eV

---------------
SCF CONVERGENCE
---------------

  Last Energy change         ...   -1.4322e-09  Tolerance :   1.0000e-08
  Last MAX-Density change    ...    1.7764e-15  Tolerance :   1.0000e-07
  Last RMS-Density change    ...    7.8146e-17  Tolerance :   5.0000e-09
  Last Orbital Gradient      ...    1.0532e-06  Tolerance :   1.0000e-05
  Last Orbital Rotation      ...    2.3405e-06  Tolerance :   1.0000e-05

             **** THE GBW FILE WAS UPDATED (ts_guess_orca_constrained_opt.gbw) ****
             **** DENSITY FILE WAS UPDATED (ts_guess_orca_constrained_opt.scfp.tmp) ****
             **** ENERGY FILE WAS UPDATED (ts_guess_orca_constrained_opt.en.tmp) ****
----------------
ORBITAL ENERGIES
----------------

  NO   OCC          E(Eh)            E(eV) 
   0   2.0000    -101.565886     -2763.7483 
   1   2.0000     -24.591962      -669.1813 
   2   2.0000     -10.325566      -280.9729 
   3   2.0000      -9.416280      -256.2300 
   4   2.0000      -7.154866      -194.6938 
   5   2.0000      -7.149769      -194.5551 
   6   2.0000      -7.149745      -194.5545 
   7   2.0000      -0.976412       -26.5695 
   8   2.0000      -0.753826       -20.5127 
   9   2.0000      -0.587730       -15.9930 
  10   2.0000      -0.376407       -10.2426 
  11   2.0000      -0.374728       -10.1969 
  12   2.0000      -0.331625        -9.0240 
  13   2.0000      -0.262633        -7.1466 
  14   2.0000      -0.262501        -7.1430 
  15   2.0000      -0.226554        -6.1649 
  16   2.0000      -0.225943        -6.1482 
  17   2.0000      -0.215458        -5.8629 
  18   0.0000       0.010313         0.2806 
  19   0.0000       0.052456         1.4274 
  20   0.0000       0.098208         2.6724 
  21   0.0000       0.100949         2.7470 
  22   0.0000       0.477218        12.9857 
  23   0.0000       0.492935        13.4134 
  24   0.0000       0.494002        13.4425 
  25   0.0000       0.561476        15.2785 
  26   0.0000       0.593315        16.1449 
  27   0.0000       0.594760        16.1842 
  28   0.0000       0.661828        18.0093 
  29   0.0000       0.773510        21.0483 
  30   0.0000       0.833317        22.6757 
  31   0.0000       0.834115        22.6974 
  32   0.0000       0.888778        24.1849 
  33   0.0000       0.889205        24.1965 
  34   0.0000       0.952565        25.9206 
  35   0.0000       0.953371        25.9425 
  36   0.0000       1.021497        27.7964 
  37   0.0000       1.089483        29.6463 
  38   0.0000       1.262144        34.3447 
  39   0.0000       1.263019        34.3685 
  40   0.0000       1.270726        34.5782 
  41   0.0000       1.401016        38.1236 
  42   0.0000       1.402902        38.1749 
  43   0.0000       1.439005        39.1573 
  44   0.0000       1.546346        42.0782 
  45   0.0000       1.549493        42.1638 
  46   0.0000       1.611613        43.8542 
  47   0.0000       1.716017        46.6952 
  48   0.0000       1.717792        46.7435 
  49   0.0000       1.922911        52.3251 
  50   0.0000       1.979224        53.8574 
  51   0.0000       2.071751        56.3752 
  52   0.0000       2.072768        56.4029 
  53   0.0000       2.335133        63.5422 
  54   0.0000       2.594853        70.6095 
  55   0.0000       2.598063        70.6969 
  56   0.0000       3.251382        88.4746 
  57   0.0000       3.253257        88.5256 
  58   0.0000       3.260181        88.7140 
  59   0.0000       3.260518        88.7232 
  60   0.0000       3.305314        89.9422 

                    ********************************
                    * MULLIKEN POPULATION ANALYSIS *
                    ********************************

-----------------------
MULLIKEN ATOMIC CHARGES
-----------------------
   0 F :   -0.631471
   1 C :   -0.246630
   2 Cl:   -0.592845
   3 H :    0.156938
   4 H :    0.158186
   5 H :    0.155823
Sum of atomic charges:   -1.0000000

--------------------------------
MULLIKEN REDUCED ORBITAL CHARGES
--------------------------------
  0 F s       :     3.971775  s :     3.971775
      pz      :     1.980206  p :     5.659170
      px      :     1.698301
      py      :     1.980664
      dz2     :     0.000097  d :     0.000526
      dxz     :     0.000069
      dyz     :     0.000000
      dx2y2   :     0.000291
      dxy     :     0.000069
  1 C s       :     3.555783  s :     3.555783
      pz      :     1.019938  p :     2.666827
      px      :     0.623799
      py      :     1.023090
      dz2     :     0.004901  d :     0.024020
      dxz     :     0.003702
      dyz     :     0.002524
      dx2y2   :     0.009547
      dxy     :     0.003346
  2 Cls       :     5.982341  s :     5.982341
      pz      :     3.976001  p :    11.593783
      px      :     3.641405
      py      :     3.976376
      dz2     :     0.001767  d :     0.016721
      dxz     :     0.004899
      dyz     :     0.000309
      dx2y2   :     0.004818
      dxy     :     0.004927
  3 H s       :     0.825201  s :     0.825201
      pz      :     0.007335  p :     0.017861
      px      :     0.006903
      py      :     0.003623
  4 H s       :     0.823773  s :     0.823773
      pz      :     0.007623  p :     0.018042
      px      :     0.007038
      py      :     0.003380
  5 H s       :     0.826136  s :     0.826136
      pz      :     0.001654  p :     0.018042
      px      :     0.006441
      py      :     0.009947


                     *******************************
                     * LOEWDIN POPULATION ANALYSIS *
                     *******************************

----------------------
LOEWDIN ATOMIC CHARGES
----------------------
   0 F :   -0.614611
   1 C :   -0.207213
   2 Cl:   -0.431690
   3 H :    0.085351
   4 H :    0.084675
   5 H :    0.083487

-------------------------------
LOEWDIN REDUCED ORBITAL CHARGES
-------------------------------
  0 F s       :     3.938077  s :     3.938077
      pz      :     1.982823  p :     5.675751
      px      :     1.709730
      py      :     1.983198
      dz2     :     0.000150  d :     0.000782
      dxz     :     0.000092
      dyz     :     0.000000
      dx2y2   :     0.000448
      dxy     :     0.000092
  1 C s       :     3.282666  s :     3.282666
      pz      :     1.067596  p :     2.875478
      px      :     0.739010
      py      :     1.068872
      dz2     :     0.010715  d :     0.049069
      dxz     :     0.006230
      dyz     :     0.005582
      dx2y2   :     0.020993
      dxy     :     0.005548
  2 Cls       :     5.892661  s :     5.892661
      pz      :     3.963868  p :    11.520894
      px      :     3.592722
      py      :     3.964304
      dz2     :     0.002102  d :     0.018134
      dxz     :     0.004953
      dyz     :     0.000358
      dx2y2   :     0.005737
      dxy     :     0.004985
  3 H s       :     0.866110  s :     0.866110
      pz      :     0.020310  p :     0.048539
      px      :     0.019144
      py      :     0.009085
  4 H s       :     0.865900  s :     0.865900
      pz      :     0.021348  p :     0.049426
      px      :     0.019610
      py      :     0.008467
  5 H s       :     0.867442  s :     0.867442
      pz      :     0.003305  p :     0.049070
      px      :     0.017768
      py      :     0.027997


                      *****************************
                      * MAYER POPULATION ANALYSIS *
                      *****************************

  NA   - Mulliken gross atomic population
  ZA   - Total nuclear charge
  QA   - Mulliken gross atomic charge
  VA   - Mayer's total valence
  BVA  - Mayer's bonded valence
  FA   - Mayer's free valence

  ATOM       NA         ZA         QA         VA         BVA        FA
  0 F      9.6315     9.0000    -0.6315     0.5949     0.5949    -0.0000
  1 C      6.2466     6.0000    -0.2466     3.5695     3.5695     0.0000
  2 Cl    17.5928    17.0000    -0.5928     0.6392     0.6392    -0.0000
  3 H      0.8431     1.0000     0.1569     0.9654     0.9654     0.0000
  4 H      0.8418     1.0000     0.1582     0.9650     0.9650     0.0000
  5 H      0.8442     1.0000     0.1558     0.9660     0.9660    -0.0000

  Mayer bond orders larger than 0.1
B(  0-F ,  1-C ) :   0.4388 B(  1-C ,  2-Cl) :   0.4750 B(  1-C ,  3-H ) :   0.8839 
B(  1-C ,  4-H ) :   0.8837 B(  1-C ,  5-H ) :   0.8882 

-------
TIMINGS
-------

Total SCF time: 0 days 0 hours 0 min 5 sec 

Total time                  ....       5.471 sec
Sum of individual times     ....       5.336 sec  ( 97.5%)

Fock matrix formation       ....       4.960 sec  ( 90.7%)
  Split-RI-J                ....       1.401 sec  ( 28.2% of F)
  Chain of spheres X        ....       0.751 sec  ( 15.1% of F)
  COS-X 1 center corr.      ....       0.000 sec  (  0.0% of F)
  XC integration            ....       0.142 sec  (  2.9% of F)
    Basis function eval.    ....       0.034 sec  ( 23.8% of XC)
    Density eval.           ....       0.013 sec  (  9.0% of XC)
    XC-Functional eval.     ....       0.013 sec  (  9.4% of XC)
    XC-Potential eval.      ....       0.016 sec  ( 11.4% of XC)
Diagonalization             ....       0.003 sec  (  0.1%)
Density matrix formation    ....       0.001 sec  (  0.0%)
Population analysis         ....       0.002 sec  (  0.0%)
Initial guess               ....       0.104 sec  (  1.9%)
Orbital Transformation      ....       0.000 sec  (  0.0%)
Orbital Orthonormalization  ....       0.000 sec  (  0.0%)
DIIS solution               ....       0.001 sec  (  0.0%)
SOSCF solution              ....       0.002 sec  (  0.0%)
Grid generation             ....       0.263 sec  (  4.8%)


-------------------------------------------------------------------------------
                          DFT DISPERSION CORRECTION                            
                                                                               
                              DFTD3 V3.1  Rev 1                                
                          USING Becke-Johnson damping                          
-------------------------------------------------------------------------------
The PBE0 functional is recognized
Active option DFTDOPT                   ...         4   

molecular C6(AA) [au] = 542.603094 


            DFT-D V3
 parameters
 s6 scaling factor         :     1.0000 
 a1 scaling factor         :     0.4145 
 s8 scaling factor         :     1.2177 
 a2 scaling factor         :     4.8593 
 ad hoc parameters k1-k3   :    16.0000     1.3333    -4.0000 

 Edisp/kcal,au: -1.725726059792  -0.002750119237 
 E6   /kcal   :  -1.087936557 
 E8   /kcal   :  -0.637789503 
 % E8         :  36.957748822 

-------------------------   ----------------
Dispersion correction           -0.002750119
-------------------------   ----------------


-------------------------   --------------------
FINAL SINGLE POINT ENERGY      -599.328719776616
-------------------------   --------------------



           ************************************************************
           *        Program running with 8 parallel MPI-processes     *
           *              working on a common directory               *
           ************************************************************
------------------------------------------------------------------------------
                         ORCA SCF GRADIENT CALCULATION
------------------------------------------------------------------------------

Gradient of the Kohn-Sham DFT energy:
Kohn-Sham wavefunction type      ... RKS
Hartree-Fock exchange scaling    ...    0.250
Number of operators              ...    1
Number of atoms                  ...    6
Basis set dimensions             ...   61
Integral neglect threshold       ... 2.5e-11
Integral primitive cutoff        ... 2.5e-12

Nuclear repulsion gradient       ... done
One Electron Gradient            ... done
Pre-screening matrix             ... done
RI-J gradient                    ... done
COSX-gradient                    ... done
Exchange-correlation gradient    ... done
Dispersion correction            ... done

------------------
CARTESIAN GRADIENT
------------------

   1   F   :   -0.030109353   -0.002142207    0.000941531
   2   C   :   -0.050400447   -0.001350548    0.001269722
   3   Cl  :   -0.072388279   -0.001654141    0.000795818
   4   H   :    0.052431847   -0.042256227   -0.073321276
   5   H   :    0.053379975   -0.039180234    0.073759402
   6   H   :    0.047093948    0.086759850   -0.003142162

Difference to translation invariance:
           :    0.0000076888    0.0001764925    0.0003030349

Norm of the cartesian gradient     ...    0.1954220195
RMS gradient                       ...    0.0460614117
MAX gradient                       ...    0.0867598501

-------
TIMINGS
-------

Total SCF gradient time            ...        0.533 sec

One electron gradient       ....       0.002 sec  (  0.3%)
Prescreening matrices       ....       0.008 sec  (  1.5%)
RI-J Coulomb gradient       ....       0.097 sec  ( 18.2%)
COSX gradient               ....       0.079 sec  ( 14.8%)
XC gradient                 ....       0.041 sec  (  7.7%)
CPCM gradient               ....       0.058 sec  ( 10.9%)
   A-Matrix (El+Nuc)        ....       0.001 sec  (  0.2%)
   Potential                ....       0.057 sec  ( 10.7%)
------------------------------------------------------------------------------
                         ORCA GEOMETRY RELAXATION STEP
------------------------------------------------------------------------------

Reading the OPT-File                    .... done
Getting information on internals        .... done
Copying old internal coords+grads       .... done
Making the new internal coordinates     .... (new redundants).... done
Validating the new internal coordinates .... (new redundants).... done
Calculating the B-matrix                .... done
Calculating the G,G- and P matrices     .... done
Transforming gradient to internals      .... done
Projecting the internal gradient        .... done
Number of atoms                         ....   6
Number of internal coordinates          ....  17
Current Energy                          ....  -599.328719777 Eh
Current gradient norm                   ....     0.195422020 Eh/bohr
Maximum allowed component of the step   ....  0.300
Current trust radius                    ....  0.300
Evaluating the initial hessian          ....  (Almloef) done
Projecting the Hessian                  .... done
Forming the augmented Hessian           .... done
Diagonalizing the augmented Hessian     .... done
Last element of RFO vector              ....  0.797642544
Lowest eigenvalues of augmented Hessian:
 -0.101549535  0.039226290  0.039453625  0.116464370  0.134138393
Length of the computed step             ....  0.756141309
Warning: the length of the step is outside the trust region - taking restricted step instead
The input lambda is                     ....    -0.101550
   iter:   1  x=   -0.174410  g=    6.611989 f(x)=     0.481750
   iter:   2  x=   -0.259650  g=    2.283198 f(x)=     0.194620
   iter:   3  x=   -0.332578  g=    0.939442 f(x)=     0.068512
   iter:   4  x=   -0.365774  g=    0.520541 f(x)=     0.017280
   iter:   5  x=   -0.370373  g=    0.412034 f(x)=     0.001895
   iter:   6  x=   -0.370446  g=    0.399471 f(x)=     0.000029
   iter:   7  x=   -0.370446  g=    0.399276 f(x)=     0.000000
   iter:   8  x=   -0.370446  g=    0.399276 f(x)=     0.000000
The output lambda is                    ....    -0.370446 (8 iterations)
The final length of the internal step   ....  0.300000000
Converting the step to cartesian space:
 Initial RMS(Int)=    0.0727606875
Transforming coordinates:
 Iter   0:  RMS(Cart)=    0.0577810743 RMS(Int)=    0.0725030492
 Iter   1:  RMS(Cart)=    0.0002817841 RMS(Int)=    0.0004813908
 Iter   2:  RMS(Cart)=    0.0000117357 RMS(Int)=    0.0000145781
 Iter   3:  RMS(Cart)=    0.0000005857 RMS(Int)=    0.0000007073
 Iter   4:  RMS(Cart)=    0.0000000293 RMS(Int)=    0.0000000353
Imposing constraints:
 Iter   0:  RMS(Cart)=    0.0000410973 RMS(Int)=    0.0001219962
 Iter   1:  RMS(Cart)=    0.0000191444 RMS(Int)=    0.0000568299
 Iter   2:  RMS(Cart)=    0.0000089181 RMS(Int)=    0.0000264732
 Iter   3:  RMS(Cart)=    0.0000041543 RMS(Int)=    0.0000123321
 Iter   4:  RMS(Cart)=    0.0000019352 RMS(Int)=    0.0000057447
 Iter   5:  RMS(Cart)=    0.0000009015 RMS(Int)=    0.0000026761
 Iter   6:  RMS(Cart)=    0.0000004199 RMS(Int)=    0.0000012466
 Iter   7:  RMS(Cart)=    0.0000001956 RMS(Int)=    0.0000005807
 Iter   8:  RMS(Cart)=    0.0000000911 RMS(Int)=    0.0000002705
 Iter   9:  RMS(Cart)=    0.0000000425 RMS(Int)=    0.0000001260
 Iter  10:  RMS(Cart)=    0.0000000198 RMS(Int)=    0.0000000587
CONVERGED
done
Storing new coordinates                 .... done

                                .--------------------.
          ----------------------|Geometry convergence|-------------------------
          Item                value                   Tolerance       Converged
          ---------------------------------------------------------------------
          RMS gradient        0.0331639812            0.0001000000      NO
          MAX gradient        0.0676456225            0.0003000000      NO
          RMS step            0.0727606875            0.0020000000      NO
          MAX step            0.1437695569            0.0040000000      NO
          ........................................................
          Max(Bonds)      0.0761      Max(Angles)    0.24
          Max(Dihed)        0.00      Max(Improp)    0.00
          ---------------------------------------------------------------------

The optimization has not yet converged - more geometry cycles are needed


    ---------------------------------------------------------------------------
                         Redundant Internal Coordinates
                            (Angstroem and degrees)

        Definition                    Value    dE/dq     Step     New-Value
    ----------------------------------------------------------------------------
     1. B(C   1,F   0)                1.9987 -0.040471 -0.0000    1.9987 C 
     2. B(Cl  2,C   1)                2.1360 -0.072409 -0.0000    2.1360 C 
     3. B(H   3,C   1)                1.3926  0.077110 -0.0761    1.3166   
     4. B(H   3,F   0)                2.7793  0.027105 -0.0519    2.7274   
     5. B(H   4,F   0)                2.7573  0.026412 -0.0509    2.7065   
     6. B(H   4,C   1)                1.3846  0.077339 -0.0759    1.3087   
     7. B(H   5,F   0)                2.7443  0.026898 -0.0513    2.6930   
     8. B(H   5,C   1)                1.3810  0.077020 -0.0755    1.3055   
     9. A(H   3,C   1,H   4)          110.70 -0.003213   -0.22    110.48   
    10. A(Cl  2,C   1,H   5)           72.51 -0.003275   -0.24     72.26   
    11. A(H   3,C   1,H   5)          110.79 -0.003613   -0.18    110.61   
    12. A(H   4,C   1,H   5)          111.49 -0.003237   -0.21    111.28   
    13. A(F   0,C   1,H   3)          108.76  0.003493    0.23    108.99   
    14. A(F   0,C   1,H   4)          107.79  0.003319    0.24    108.03   
    15. A(F   0,C   1,H   5)          107.17  0.003893    0.17    107.34   
    16. A(Cl  2,C   1,H   3)           71.86 -0.003420   -0.23     71.64   
    17. A(Cl  2,C   1,H   4)           71.92 -0.004006   -0.18     71.74   
    ----------------------------------------------------------------------------

         *************************************************************
         *                GEOMETRY OPTIMIZATION CYCLE   2            *
         *************************************************************
---------------------------------
CARTESIAN COORDINATES (ANGSTROEM)
---------------------------------
  F     -2.716084   -0.080286    0.042030
  C     -0.718448   -0.026140    0.005875
  Cl     1.416159    0.047054   -0.014724
  H     -0.292250   -0.660806   -1.065857
  H     -0.277898   -0.611394    1.090264
  H     -0.364179    1.229672   -0.032288

----------------------------
CARTESIAN COORDINATES (A.U.)
----------------------------
  NO LB      ZA    FRAG     MASS         X           Y           Z
   0 F     9.0000    0    18.998   -5.132655   -0.151719    0.079425
   1 C     6.0000    0    12.011   -1.357669   -0.049398    0.011103
   2 Cl   17.0000    0    35.453    2.676153    0.088919   -0.027825
   3 H     1.0000    0     1.008   -0.552272   -1.248742   -2.014178
   4 H     1.0000    0     1.008   -0.525151   -1.155366    2.060301
   5 H     1.0000    0     1.008   -0.688199    2.323743   -0.061016

--------------------------------
INTERNAL COORDINATES (ANGSTROEM)
--------------------------------
 F      0   0   0     0.000000000000     0.00000000     0.00000000
 C      1   0   0     1.998697080590     0.00000000     0.00000000
 Cl     2   1   0     2.135960564627   179.36497757     0.00000000
 H      2   1   3     1.316455370382   108.98016683   189.10204721
 H      2   1   4     1.308627004932   108.02107268   239.92606066
 H      2   1   5     1.305383742426   107.32771727   239.90129195

---------------------------
INTERNAL COORDINATES (A.U.)
---------------------------
 F      0   0   0     0.000000000000     0.00000000     0.00000000
 C      1   0   0     3.776990106983     0.00000000     0.00000000
 Cl     2   1   0     4.036380500000   179.36497757     0.00000000
 H      2   1   3     2.487740117552   108.98016683   189.10204721
 H      2   1   4     2.472946650775   108.02107268   239.92606066
 H      2   1   5     2.466817772858   107.32771727   239.90129195



           ************************************************************
           *        Program running with 8 parallel MPI-processes     *
           *              working on a common directory               *
           ************************************************************
 One Electron integrals                  ... done
 Pre-screening matrix                    ... done


           ************************************************************
           *        Program running with 8 parallel MPI-processes     *
           *              working on a common directory               *
           ************************************************************

Diagonalization of the overlap matrix:
Smallest eigenvalue                        ... 1.861e-02
Time for diagonalization                   ...    0.001 sec
Threshold for overlap eigenvalues          ... 1.000e-08
Number of eigenvalues below threshold      ... 0
Time for construction of square roots      ...    0.001 sec
Total time needed                          ...    0.002 sec

-------------------
DFT GRID GENERATION
-------------------

General Integration Accuracy     IntAcc      ...  4.340
Radial Grid Type                 RadialGrid  ... Gauss-Chebyshev
Angular Grid (max. acc.)         AngularGrid ... Lebedev-110
Angular grid pruning method      GridPruning ... 3 (G Style)
Weight generation scheme         WeightScheme... Becke
Basis function cutoff            BFCut       ...    1.0000e-11
Integration weight cutoff        WCut        ...    1.0000e-14
Grids for H and He will be reduced by one unit

# of grid points (after initial pruning)     ...   7622 (   0.0 sec)
# of grid points (after weights+screening)   ...   7449 (   0.0 sec)
nearest neighbour list constructed           ...    0.0 sec
Grid point re-assignment to atoms done       ...    0.0 sec
Grid point division into batches done        ...    0.0 sec
Reduced shell lists constructed in    0.0 sec

Total number of grid points                  ...     7449
Total number of batches                      ...      120
Average number of points per batch           ...       62
Average number of grid points per atom       ...     1242
Average number of shells per batch           ...    17.19 (59.27%)
Average number of basis functions per batch  ...    35.19 (57.68%)
Average number of large shells per batch     ...    13.50 (78.55%)
Average number of large basis fcns per batch ...    27.12 (77.09%)
Maximum spatial batch extension              ...  12.83, 25.60, 21.02 au
Average spatial batch extension              ...   0.81,  1.19,  1.07 au

Time for grid setup =    0.020 sec

--------------------
COSX GRID GENERATION
--------------------

General Integration Accuracy     IntAcc      ...  3.340
Radial Grid Type                 RadialGrid  ... Gauss-Chebyshev
Angular Grid (max. acc.)         AngularGrid ... Lebedev-50
Angular grid pruning method      GridPruning ... 3 (G Style)
Weight generation scheme         WeightScheme... Becke
Basis function cutoff            BFCut       ...    1.0000e-11
Integration weight cutoff        WCut        ...    1.0000e-14
Grids for H and He will be reduced by one unit

# of grid points (after initial pruning)     ...   2826 (   0.0 sec)
# of grid points (after weights+screening)   ...   2764 (   0.0 sec)
nearest neighbour list constructed           ...    0.0 sec
Grid point re-assignment to atoms done       ...    0.0 sec
Grid point division into batches done        ...    0.0 sec
Reduced shell lists constructed in    0.0 sec

Total number of grid points                  ...     2764
Total number of batches                      ...       47
Average number of points per batch           ...       58
Average number of grid points per atom       ...      461
Average number of shells per batch           ...    19.43 (67.00%)
Average number of basis functions per batch  ...    40.29 (66.04%)
Average number of large shells per batch     ...    16.00 (82.35%)
Average number of large basis fcns per batch ...    32.57 (80.85%)
Maximum spatial batch extension              ...  12.82, 20.72, 20.72 au
Average spatial batch extension              ...   1.17,  1.55,  1.58 au

Overlap Fitting                  UseSFitting ... on
Constructing numerical overlap ... done (      0.0 sec)
Inverting numerical overlap    ... done (      0.0 sec)
Obtaining analytic overlap     ... done (      0.0 sec)
Final contraction and storage  ... done (      0.0 sec)


General Integration Accuracy     IntAcc      ...  3.670
Radial Grid Type                 RadialGrid  ... Gauss-Chebyshev
Angular Grid (max. acc.)         AngularGrid ... Lebedev-50
Angular grid pruning method      GridPruning ... 3 (G Style)
Weight generation scheme         WeightScheme... Becke
Basis function cutoff            BFCut       ...    1.0000e-11
Integration weight cutoff        WCut        ...    1.0000e-14
Grids for H and He will be reduced by one unit

# of grid points (after initial pruning)     ...   3566 (   0.0 sec)
# of grid points (after weights+screening)   ...   3486 (   0.0 sec)
nearest neighbour list constructed           ...    0.0 sec
Grid point re-assignment to atoms done       ...    0.0 sec
Grid point division into batches done        ...    0.0 sec
Reduced shell lists constructed in    0.0 sec

Total number of grid points                  ...     3486
Total number of batches                      ...       58
Average number of points per batch           ...       60
Average number of grid points per atom       ...      581
Average number of shells per batch           ...    19.56 (67.43%)
Average number of basis functions per batch  ...    40.89 (67.03%)
Average number of large shells per batch     ...    16.44 (84.09%)
Average number of large basis fcns per batch ...    33.78 (82.61%)
Maximum spatial batch extension              ...  13.54, 22.67, 22.67 au
Average spatial batch extension              ...   1.12,  1.48,  1.48 au

Overlap Fitting                  UseSFitting ... on
Constructing numerical overlap ... done (      0.0 sec)
Inverting numerical overlap    ... done (      0.0 sec)
Obtaining analytic overlap     ... done (      0.0 sec)
Final contraction and storage  ... done (      0.0 sec)


General Integration Accuracy     IntAcc      ...  4.010
Radial Grid Type                 RadialGrid  ... Gauss-Chebyshev
Angular Grid (max. acc.)         AngularGrid ... Lebedev-110
Angular grid pruning method      GridPruning ... 3 (G Style)
Weight generation scheme         WeightScheme... Becke
Basis function cutoff            BFCut       ...    1.0000e-11
Integration weight cutoff        WCut        ...    1.0000e-14
Grids for H and He will be reduced by one unit

# of grid points (after initial pruning)     ...   6574 (   0.0 sec)
# of grid points (after weights+screening)   ...   6428 (   0.0 sec)
nearest neighbour list constructed           ...    0.0 sec
Grid point re-assignment to atoms done       ...    0.0 sec
Grid point division into batches done        ...    0.0 sec
Reduced shell lists constructed in    0.0 sec

Total number of grid points                  ...     6428
Total number of batches                      ...      104
Average number of points per batch           ...       61
Average number of grid points per atom       ...     1071
Average number of shells per batch           ...    18.07 (62.32%)
Average number of basis functions per batch  ...    37.36 (61.24%)
Average number of large shells per batch     ...    13.71 (75.89%)
Average number of large basis fcns per batch ...    27.29 (73.04%)
Maximum spatial batch extension              ...  12.71, 24.23, 19.90 au
Average spatial batch extension              ...   0.80,  1.20,  1.06 au

Overlap Fitting                  UseSFitting ... on
Constructing numerical overlap ... done (      0.0 sec)
Inverting numerical overlap    ... done (      0.0 sec)
Obtaining analytic overlap     ... done (      0.0 sec)
Final contraction and storage  ... done (      0.0 sec)

Time for X-Grid setup             =    0.097 sec

--------------------
CPCM SOLVATION MODEL
--------------------
CPCM parameters:
  Epsilon                                         ...      78.3550
  Refrac                                          ...       1.0000
  Rsolv                                           ...       1.3000
  Surface type                                    ...    GEPOL SES
  Epsilon function type                           ...         CPCM
Solvent:                                     ... WATER
SMD-CDS solvent descriptors:
  Soln                                       ...    1.3328
  Soln25                                     ...    1.3323
  Sola                                       ...    0.0000
  Solb                                       ...    0.0000
  Solg                                       ...    0.0000
  Solc                                       ...    0.0000
  Solh                                       ...    0.0000
Radii:
 Radius for F  used is    3.2692 Bohr (=   1.7300 Ang.)
 Radius for C  used is    3.4960 Bohr (=   1.8500 Ang.)
 Radius for Cl used is    4.4975 Bohr (=   2.3800 Ang.)
 Radius for H  used is    2.2677 Bohr (=   1.2000 Ang.)
Calculating surface                               ...        done! (  0.0s)
GEPOL surface points                              ...          244
GEPOL Volume                                      ...     618.3524
GEPOL Surface-area                                ...     393.4428
Calculating surface distance matrix               ...        done! (  0.0s)
Performing Cholesky decomposition & store         ...        done! (  0.0s)
Overall time for CPCM initialization              ...                 0.0s
--------------
SCF ITERATIONS
--------------
ITER       Energy         Delta-E        Max-DP      RMS-DP      [F,P]     Damp
               ***  Starting incremental Fock matrix formation  ***
  0   -599.3700189907   0.000000000000 0.00826024  0.00039042  0.0179014 0.7000
                      *** Initiating the SOSCF procedure ***
                      *** Re-Reading the Fockian *** 
                      *** Removing any level shift *** 
ITER      Energy       Delta-E        Grad      Rot      Max-DP    RMS-DP
  1   -599.37046230  -0.0004433115  0.001913  0.001913  0.019907  0.001071
               *** Restarting incremental Fock matrix formation ***
  2   -599.37129471  -0.0008324082  0.003567  0.009917  0.016767  0.000655
  3   -599.37114283   0.0001518781  0.005171  0.005268  0.009296  0.000373
  4   -599.37142315  -0.0002803204  0.000363  0.000521  0.001114  0.000060
  5   -599.37142273   0.0000004189  0.000447  0.000494  0.000727  0.000035
  6   -599.37142444  -0.0000017049  0.000101  0.000298  0.000409  0.000019
  7   -599.37142453  -0.0000000922  0.000107  0.000124  0.000234  0.000010
  8   -599.37142459  -0.0000000553  0.000003  0.000003  0.000016  0.000001
                  ***Gradient check signals convergence***
              ***Rediagonalizing the Fockian in SOSCF/NRSCF***

               *****************************************************
               *                     SUCCESS                       *
               *           SCF CONVERGED AFTER   9 CYCLES          *
               *****************************************************

Setting up the final grid:

General Integration Accuracy     IntAcc      ...  4.670
Radial Grid Type                 RadialGrid  ... Gauss-Chebyshev
Angular Grid (max. acc.)         AngularGrid ... Lebedev-302
Angular grid pruning method      GridPruning ... 3 (G Style)
Weight generation scheme         WeightScheme... Becke
Basis function cutoff            BFCut       ...    1.0000e-11
Integration weight cutoff        WCut        ...    1.0000e-14
Grids for H and He will be reduced by one unit

# of grid points (after initial pruning)     ...  29404 (   0.0 sec)
# of grid points (after weights+screening)   ...  28601 (   0.0 sec)
nearest neighbour list constructed           ...    0.0 sec
Grid point re-assignment to atoms done       ...    0.0 sec
Grid point division into batches done        ...    0.1 sec
Reduced shell lists constructed in    0.1 sec

Total number of grid points                  ...    28601
Total number of batches                      ...      449
Average number of points per batch           ...       63
Average number of grid points per atom       ...     4767
Average number of shells per batch           ...    15.34 (52.91%)
Average number of basis functions per batch  ...    31.17 (51.10%)
Average number of large shells per batch     ...    11.72 (76.40%)
Average number of large basis fcns per batch ...    23.52 (75.44%)
Maximum spatial batch extension              ...  15.72, 16.09, 16.05 au
Average spatial batch extension              ...   0.63,  0.68,  0.70 au

Final grid set up in    0.1 sec
Final integration                            ... done (   0.0 sec)
Change in XC energy                          ...     0.000262855
Integrated number of electrons               ...    35.999968837
Previous integrated no of electrons          ...    36.000193531
Old exchange energy                            =    -10.961738206 Eh
New exchange energy                            =    -10.961196899 Eh
Exchange energy change after final integration =      0.000541306 Eh
Total energy after final integration           =   -599.370620424 Eh
Final COS-X integration done in                =     0.055 sec

SMD CDS free energy correction energy :                 3.34203     Kcal/mol
Total Energy after SMD CDS correction =              -599.365294554 Eh
Total Energy       :         -599.36529455 Eh          -16309.55883 eV
  Last Energy change         ...    8.6368e-10  Tolerance :   1.0000e-08
  Last MAX-Density change    ...    4.8850e-15  Tolerance :   1.0000e-07
             **** THE GBW FILE WAS UPDATED (ts_guess_orca_constrained_opt.gbw) ****
             **** DENSITY FILE WAS UPDATED (ts_guess_orca_constrained_opt.scfp.tmp) ****
             **** ENERGY FILE WAS UPDATED (ts_guess_orca_constrained_opt.en.tmp) ****
Total SCF time: 0 days 0 hours 0 min 3 sec 


-------------------------------------------------------------------------------
                          DFT DISPERSION CORRECTION                            
                                                                               
                              DFTD3 V3.1  Rev 1                                
                          USING Becke-Johnson damping                          
-------------------------------------------------------------------------------
-------------------------   ----------------
Dispersion correction           -0.002537762
-------------------------   ----------------


-------------------------   --------------------
FINAL SINGLE POINT ENERGY      -599.367832316734
-------------------------   --------------------



           ************************************************************
           *        Program running with 8 parallel MPI-processes     *
           *              working on a common directory               *
           ************************************************************
------------------------------------------------------------------------------
                         ORCA SCF GRADIENT CALCULATION
------------------------------------------------------------------------------

Gradient of the Kohn-Sham DFT energy:
Kohn-Sham wavefunction type      ... RKS
Hartree-Fock exchange scaling    ...    0.250
Number of operators              ...    1
Number of atoms                  ...    6
Basis set dimensions             ...   61
Integral neglect threshold       ... 2.5e-11
Integral primitive cutoff        ... 2.5e-12

Nuclear repulsion gradient       ... done
One Electron Gradient            ... done
Pre-screening matrix             ... done
RI-J gradient                    ... done
COSX-gradient                    ... done
Exchange-correlation gradient    ... done
Dispersion correction            ... done

------------------
CARTESIAN GRADIENT
------------------

   1   F   :   -0.030906299   -0.002187000    0.000973122
   2   C   :   -0.047703715   -0.000791567    0.001759520
   3   Cl  :   -0.073731670   -0.001492271    0.000858098
   4   H   :    0.052192009   -0.037346342   -0.065234929
   5   H   :    0.052744384   -0.034361498    0.064953160
   6   H   :    0.047014425    0.076605152   -0.002847779

Difference to translation invariance:
           :   -0.0003908667    0.0004264732    0.0004611919

Norm of the cartesian gradient     ...    0.1825441874
RMS gradient                       ...    0.0430260776
MAX gradient                       ...    0.0766051520

-------
TIMINGS
-------

Total SCF gradient time            ...        0.615 sec

One electron gradient       ....       0.002 sec  (  0.3%)
Prescreening matrices       ....       0.009 sec  (  1.5%)
RI-J Coulomb gradient       ....       0.104 sec  ( 16.9%)
COSX gradient               ....       0.078 sec  ( 12.6%)
XC gradient                 ....       0.063 sec  ( 10.2%)
CPCM gradient               ....       0.070 sec  ( 11.4%)
   A-Matrix (El+Nuc)        ....       0.002 sec  (  0.3%)
   Potential                ....       0.068 sec  ( 11.1%)
------------------------------------------------------------------------------
                         ORCA GEOMETRY RELAXATION STEP
------------------------------------------------------------------------------

Reading the OPT-File                    .... done
Getting information on internals        .... done
Copying old internal coords+grads       .... done
Making the new internal coordinates     .... (new redundants).... done
Validating the new internal coordinates .... (new redundants).... done
Calculating the B-matrix                .... done
Calculating the G,G- and P matrices     .... done
Transforming gradient to internals      .... done
Projecting the internal gradient        .... done
Number of atoms                         ....   6
Number of internal coordinates          ....  17
Current Energy                          ....  -599.367832317 Eh
Current gradient norm                   ....     0.182544187 Eh/bohr
Maximum allowed component of the step   ....  0.300
Current trust radius                    ....  0.300
Updating the Hessian (BFGS)             .... done
Forming the augmented Hessian           .... done
Diagonalizing the augmented Hessian     .... done
Last element of RFO vector              ....  0.758557409
Lowest eigenvalues of augmented Hessian:
 -0.104835422  0.039236410  0.039455360  0.119494124  0.134138818
Length of the computed step             ....  0.859007116
Warning: the length of the step is outside the trust region - taking restricted step instead
The input lambda is                     ....    -0.104835
   iter:   1  x=   -0.166538  g=   10.500261 f(x)=     0.647893
   iter:   2  x=   -0.242565  g=    3.512787 f(x)=     0.267066
   iter:   3  x=   -0.316138  g=    1.350957 f(x)=     0.099395
   iter:   4  x=   -0.359268  g=    0.670347 f(x)=     0.028912
   iter:   5  x=   -0.368837  g=    0.474719 f(x)=     0.004542
   iter:   6  x=   -0.369196  g=    0.442000 f(x)=     0.000159
   iter:   7  x=   -0.369197  g=    0.440829 f(x)=     0.000000
   iter:   8  x=   -0.369197  g=    0.440828 f(x)=     0.000000
   iter:   9  x=   -0.369197  g=    0.440828 f(x)=     0.000000
The output lambda is                    ....    -0.369197 (9 iterations)
The final length of the internal step   ....  0.300000000
Converting the step to cartesian space:
 Initial RMS(Int)=    0.0727606875
Transforming coordinates:
 Iter   0:  RMS(Cart)=    0.0560215242 RMS(Int)=    0.0725258970
 Iter   1:  RMS(Cart)=    0.0001745155 RMS(Int)=    0.0003624545
 Iter   2:  RMS(Cart)=    0.0000045038 RMS(Int)=    0.0000056807
 Iter   3:  RMS(Cart)=    0.0000002299 RMS(Int)=    0.0000002744
 Iter   4:  RMS(Cart)=    0.0000000118 RMS(Int)=    0.0000000140
Imposing constraints:
 Iter   0:  RMS(Cart)=    0.0001130884 RMS(Int)=    0.0003598164
 Iter   1:  RMS(Cart)=    0.0000544526 RMS(Int)=    0.0001732536
 Iter   2:  RMS(Cart)=    0.0000262192 RMS(Int)=    0.0000834225
 Iter   3:  RMS(Cart)=    0.0000126247 RMS(Int)=    0.0000401684
 Iter   4:  RMS(Cart)=    0.0000060789 RMS(Int)=    0.0000193413
 Iter   5:  RMS(Cart)=    0.0000029270 RMS(Int)=    0.0000093129
 Iter   6:  RMS(Cart)=    0.0000014094 RMS(Int)=    0.0000044842
 Iter   7:  RMS(Cart)=    0.0000006786 RMS(Int)=    0.0000021592
 Iter   8:  RMS(Cart)=    0.0000003268 RMS(Int)=    0.0000010397
 Iter   9:  RMS(Cart)=    0.0000001573 RMS(Int)=    0.0000005006
 Iter  10:  RMS(Cart)=    0.0000000758 RMS(Int)=    0.0000002410
[...]
CPCM parameters:
  Epsilon                                         ...      78.3550
  Refrac                                          ...       1.0000
  Rsolv                                           ...       1.3000
  Surface type                                    ...    GEPOL SES
  Epsilon function type                           ...         CPCM
Solvent:                                     ... WATER
SMD-CDS solvent descriptors:
  Soln                                       ...    1.3328
  Soln25                                     ...    1.3323
  Sola                                       ...    0.0000
  Solb                                       ...    0.0000
  Solg                                       ...    0.0000
  Solc                                       ...    0.0000
  Solh                                       ...    0.0000
Radii:
 Radius for F  used is    3.2692 Bohr (=   1.7300 Ang.)
 Radius for C  used is    3.4960 Bohr (=   1.8500 Ang.)
 Radius for Cl used is    4.4975 Bohr (=   2.3800 Ang.)
 Radius for H  used is    2.2677 Bohr (=   1.2000 Ang.)
Calculating surface                               ...        done! (  0.0s)
GEPOL surface points                              ...          246
GEPOL Volume                                      ...     613.3277
GEPOL Surface-area                                ...     392.3699
Calculating surface distance matrix               ...        done! (  0.0s)
Performing Cholesky decomposition & store         ...        done! (  0.0s)
Overall time for CPCM initialization              ...                 0.0s
--------------
SCF ITERATIONS
--------------
ITER       Energy         Delta-E        Max-DP      RMS-DP      [F,P]     Damp
               ***  Starting incremental Fock matrix formation  ***
                      *** Initiating the SOSCF procedure ***
                      *** Re-Reading the Fockian *** 
                      *** Removing any level shift *** 
ITER      Energy       Delta-E        Grad      Rot      Max-DP    RMS-DP
  0   -599.48197588 -599.4819758764  0.000030  0.000030  0.000210  0.000007
               *** Restarting incremental Fock matrix formation ***
  1   -599.48197592  -0.0000000459  0.000009  0.000027  0.000100  0.000004
  2   -599.48197593  -0.0000000102  0.000006  0.000014  0.000038  0.000002
  3   -599.48197594  -0.0000000028  0.000007  0.000008  0.000025  0.000001
                 **** Energy Check signals convergence ****
              ***Rediagonalizing the Fockian in SOSCF/NRSCF***

               *****************************************************
               *                     SUCCESS                       *
               *           SCF CONVERGED AFTER   4 CYCLES          *
               *****************************************************

Setting up the final grid:

General Integration Accuracy     IntAcc      ...  4.670
Radial Grid Type                 RadialGrid  ... Gauss-Chebyshev
Angular Grid (max. acc.)         AngularGrid ... Lebedev-302
Angular grid pruning method      GridPruning ... 3 (G Style)
Weight generation scheme         WeightScheme... Becke
Basis function cutoff            BFCut       ...    1.0000e-11
Integration weight cutoff        WCut        ...    1.0000e-14
Grids for H and He will be reduced by one unit

# of grid points (after initial pruning)     ...  29404 (   0.0 sec)
# of grid points (after weights+screening)   ...  28543 (   0.0 sec)
nearest neighbour list constructed           ...    0.0 sec
Grid point re-assignment to atoms done       ...    0.0 sec
Grid point division into batches done        ...    0.1 sec
Reduced shell lists constructed in    0.1 sec

Total number of grid points                  ...    28543
Total number of batches                      ...      448
Average number of points per batch           ...       63
Average number of grid points per atom       ...     4757
Average number of shells per batch           ...    16.00 (55.17%)
Average number of basis functions per batch  ...    32.53 (53.32%)
Average number of large shells per batch     ...    12.77 (79.82%)
Average number of large basis fcns per batch ...    25.44 (78.21%)
Maximum spatial batch extension              ...  15.72, 16.42, 16.09 au
Average spatial batch extension              ...   0.59,  0.64,  0.65 au

Final grid set up in    0.1 sec
Final integration                            ... done (   0.0 sec)
Change in XC energy                          ...     0.000620600
Integrated number of electrons               ...    36.000025173
Previous integrated no of electrons          ...    36.001928153
Old exchange energy                            =    -11.021565879 Eh
New exchange energy                            =    -11.021190150 Eh
Exchange energy change after final integration =      0.000375729 Eh
Total energy after final integration           =   -599.480979605 Eh
Final COS-X integration done in                =     0.079 sec

SMD CDS free energy correction energy :                 2.73447     Kcal/mol
Total Energy after SMD CDS correction =              -599.476621949 Eh

----------------
TOTAL SCF ENERGY
----------------

Total Energy       :         -599.47662195 Eh          -16312.58820 eV

Components:
Nuclear Repulsion  :           86.21448410 Eh            2346.01538 eV
Electronic Energy  :         -685.69110605 Eh          -18658.60358 eV
One Electron Energy:        -1009.22364930 Eh          -27462.37166 eV
Two Electron Energy:          323.53254325 Eh            8803.76808 eV
CPCM Dielectric    :           -0.09982654 Eh              -2.71642 eV
SMD CDS (Gcds)     :            0.00435766 Eh               0.11858 eV

Virial components:
Potential Energy   :        -1197.17478344 Eh          -32576.78203 eV
Kinetic Energy     :          597.69816149 Eh           16264.19383 eV
Virial Ratio       :            2.00297552


DFT components:
N(Alpha)           :       18.000012586436 electrons
N(Beta)            :       18.000012586436 electrons
N(Total)           :       36.000025172873 electrons
E(X)               :      -32.918111306324 Eh       
E(C)               :       -1.292068878448 Eh       
E(XC)              :      -34.210180184773 Eh       
DFET-embed. en.    :        0.000000000000 Eh       
CPCM Solvation Model Properties:
Surface-charge          :            0.99339535
Charge-correction       :           -0.00111279 Eh              -0.03028 eV
Free-energy (cav+disp)  :            0.00328949 Eh               0.08951 eV
Corrected G(solv)       :         -599.47444525 Eh          -16312.52897 eV

---------------
SCF CONVERGENCE
---------------

  Last Energy change         ...    7.6909e-10  Tolerance :   1.0000e-08
  Last MAX-Density change    ...    4.4409e-15  Tolerance :   1.0000e-07
  Last RMS-Density change    ...    1.1773e-16  Tolerance :   5.0000e-09
  Last Orbital Gradient      ...    1.9259e-07  Tolerance :   1.0000e-05
  Last Orbital Rotation      ...    5.8034e-07  Tolerance :   1.0000e-05

             **** THE GBW FILE WAS UPDATED (ts_guess_orca_constrained_opt.gbw) ****
             **** DENSITY FILE WAS UPDATED (ts_guess_orca_constrained_opt.scfp.tmp) ****
             **** ENERGY FILE WAS UPDATED (ts_guess_orca_constrained_opt.en.tmp) ****
----------------
ORBITAL ENERGIES
----------------

  NO   OCC          E(Eh)            E(eV) 
   0   2.0000    -101.575620     -2764.0132 
   1   2.0000     -24.563381      -668.4036 
   2   2.0000     -10.265854      -279.3481 
   3   2.0000      -9.424573      -256.4557 
   4   2.0000      -7.163698      -194.9341 
   5   2.0000      -7.158016      -194.7795 
   6   2.0000      -7.158007      -194.7793 
   7   2.0000      -0.957596       -26.0575 
   8   2.0000      -0.751348       -20.4452 
   9   2.0000      -0.647229       -17.6120 
  10   2.0000      -0.423621       -11.5273 
  11   2.0000      -0.422347       -11.4926 
  12   2.0000      -0.325822        -8.8661 
  13   2.0000      -0.249831        -6.7982 
  14   2.0000      -0.249647        -6.7932 
  15   2.0000      -0.235540        -6.4094 
  16   2.0000      -0.235184        -6.3997 
  17   2.0000      -0.220440        -5.9985 
  18   0.0000       0.054198         1.4748 
  19   0.0000       0.109562         2.9813 
  20   0.0000       0.168959         4.5976 
  21   0.0000       0.170702         4.6450 
  22   0.0000       0.474150        12.9023 
  23   0.0000       0.474615        12.9149 
  24   0.0000       0.554851        15.0983 
  25   0.0000       0.624634        16.9972 
  26   0.0000       0.706047        19.2125 
  27   0.0000       0.707280        19.2461 
  28   0.0000       0.734925        19.9983 
  29   0.0000       0.745617        20.2893 
  30   0.0000       0.874710        23.8021 
  31   0.0000       0.874781        23.8040 
  32   0.0000       0.890518        24.2322 
  33   0.0000       0.890781        24.2394 
  34   0.0000       0.941065        25.6077 
  35   0.0000       0.953661        25.9504 
  36   0.0000       0.953834        25.9551 
  37   0.0000       1.203759        32.7559 
  38   0.0000       1.210913        32.9506 
  39   0.0000       1.267295        34.4848 
  40   0.0000       1.278441        34.7882 
  41   0.0000       1.395850        37.9830 
  42   0.0000       1.402607        38.1669 
  43   0.0000       1.505490        40.9665 
  44   0.0000       1.683703        45.8159 
  45   0.0000       1.718930        46.7745 
  46   0.0000       1.721735        46.8508 
  47   0.0000       1.976527        53.7840 
  48   0.0000       2.175315        59.1933 
  49   0.0000       2.179787        59.3150 
  50   0.0000       2.247779        61.1652 
  51   0.0000       2.339499        63.6610 
  52   0.0000       2.344049        63.7848 
  53   0.0000       2.893550        78.7375 
  54   0.0000       2.940385        80.0119 
  55   0.0000       2.942753        80.0764 
  56   0.0000       3.272169        89.0402 
  57   0.0000       3.274291        89.0980 
  58   0.0000       3.281095        89.2831 
  59   0.0000       3.282506        89.3215 
  60   0.0000       3.366145        91.5975 

                    ********************************
                    * MULLIKEN POPULATION ANALYSIS *
                    ********************************

-----------------------
MULLIKEN ATOMIC CHARGES
-----------------------
   0 F :   -0.710259
   1 C :    0.016710
   2 Cl:   -0.558497
   3 H :    0.084791
   4 H :    0.084433
   5 H :    0.082823
Sum of atomic charges:   -1.0000000

--------------------------------
MULLIKEN REDUCED ORBITAL CHARGES
--------------------------------
  0 F s       :     3.972164  s :     3.972164
      pz      :     1.986349  p :     5.737525
      px      :     1.766499
      py      :     1.984677
      dz2     :     0.000092  d :     0.000570
      dxz     :     0.000101
      dyz     :     0.000001
      dx2y2   :     0.000266
      dxy     :     0.000110
  1 C s       :     3.199539  s :     3.199539
      pz      :     1.052698  p :     2.755301
      px      :     0.644217
      py      :     1.058386
      dz2     :     0.007647  d :     0.028450
      dxz     :     0.001444
      dyz     :     0.006193
      dx2y2   :     0.011551
      dxy     :     0.001615
  2 Cls       :     5.975055  s :     5.975055
      pz      :     3.991732  p :    11.574014
      px      :     3.591776
      py      :     3.990505
      dz2     :     0.001550  d :     0.009429
      dxz     :     0.001612
      dyz     :     0.000032
      dx2y2   :     0.004558
      dxy     :     0.001676
  3 H s       :     0.890514  s :     0.890514
      pz      :     0.012270  p :     0.024695
      px      :     0.004921
      py      :     0.007505
  4 H s       :     0.890863  s :     0.890863
      pz      :     0.012727  p :     0.024704
      px      :     0.004945
      py      :     0.007032
  5 H s       :     0.892102  s :     0.892102
      pz      :     0.004484  p :     0.025076
      px      :     0.005599
      py      :     0.014993


                     *******************************
                     * LOEWDIN POPULATION ANALYSIS *
                     *******************************

----------------------
LOEWDIN ATOMIC CHARGES
----------------------
   0 F :   -0.668760
   1 C :    0.019830
   2 Cl:   -0.414666
   3 H :    0.022041
   4 H :    0.021747
   5 H :    0.019809

-------------------------------
LOEWDIN REDUCED ORBITAL CHARGES
-------------------------------
  0 F s       :     3.928666  s :     3.928666
      pz      :     1.984864  p :     5.739423
      px      :     1.771166
      py      :     1.983393
      dz2     :     0.000118  d :     0.000671
      dxz     :     0.000099
      dyz     :     0.000002
      dx2y2   :     0.000343
      dxy     :     0.000110
  1 C s       :     2.965383  s :     2.965383
      pz      :     1.105036  p :     2.948609
      px      :     0.736116
      py      :     1.107457
      dz2     :     0.018328  d :     0.066178
      dxz     :     0.002691
      dyz     :     0.015500
      dx2y2   :     0.026364
      dxy     :     0.003296
  2 Cls       :     5.896513  s :     5.896513
      pz      :     3.980572  p :    11.508838
      px      :     3.549013
      py      :     3.979253
      dz2     :     0.001660  d :     0.009316
      dxz     :     0.001337
      dyz     :     0.000030
      dx2y2   :     0.004882
      dxy     :     0.001406
  3 H s       :     0.905330  s :     0.905330
      pz      :     0.037741  p :     0.072629
      px      :     0.013114
      py      :     0.021774
  4 H s       :     0.905514  s :     0.905514
      pz      :     0.039361  p :     0.072739
      px      :     0.013090
      py      :     0.020288
  5 H s       :     0.906317  s :     0.906317
      pz      :     0.011869  p :     0.073874
      px      :     0.014821
      py      :     0.047184


                      *****************************
                      * MAYER POPULATION ANALYSIS *
                      *****************************

  NA   - Mulliken gross atomic population
  ZA   - Total nuclear charge
  QA   - Mulliken gross atomic charge
  VA   - Mayer's total valence
  BVA  - Mayer's bonded valence
  FA   - Mayer's free valence

  ATOM       NA         ZA         QA         VA         BVA        FA
  0 F      9.7103     9.0000    -0.7103     0.4996     0.4996    -0.0000
  1 C      5.9833     6.0000     0.0167     3.8827     3.8827    -0.0000
  2 Cl    17.5585    17.0000    -0.5585     0.6849     0.6849     0.0000
  3 H      0.9152     1.0000     0.0848     1.0039     1.0039    -0.0000
  4 H      0.9156     1.0000     0.0844     1.0046     1.0046    -0.0000
  5 H      0.9172     1.0000     0.0828     1.0111     1.0111     0.0000

  Mayer bond orders larger than 0.1
B(  0-F ,  1-C ) :   0.3619 B(  1-C ,  2-Cl) :   0.5806 B(  1-C ,  3-H ) :   0.9806 
B(  1-C ,  4-H ) :   0.9805 B(  1-C ,  5-H ) :   0.9791 

-------
TIMINGS
-------

Total SCF time: 0 days 0 hours 0 min 2 sec 

Total time                  ....       2.378 sec
Sum of individual times     ....       2.250 sec  ( 94.6%)

Fock matrix formation       ....       2.015 sec  ( 84.7%)
  Split-RI-J                ....       0.544 sec  ( 27.0% of F)
  Chain of spheres X        ....       0.339 sec  ( 16.8% of F)
  COS-X 1 center corr.      ....       0.000 sec  (  0.0% of F)
  XC integration            ....       0.066 sec  (  3.3% of F)
    Basis function eval.    ....       0.011 sec  ( 17.4% of XC)
    Density eval.           ....       0.004 sec  (  6.8% of XC)
    XC-Functional eval.     ....       0.005 sec  (  7.2% of XC)
    XC-Potential eval.      ....       0.005 sec  (  6.9% of XC)
Diagonalization             ....       0.000 sec  (  0.0%)
Density matrix formation    ....       0.000 sec  (  0.0%)
Population analysis         ....       0.002 sec  (  0.1%)
Initial guess               ....       0.002 sec  (  0.1%)
Orbital Transformation      ....       0.000 sec  (  0.0%)
Orbital Orthonormalization  ....       0.001 sec  (  0.0%)
DIIS solution               ....       0.000 sec  (  0.0%)
SOSCF solution              ....       0.001 sec  (  0.0%)
Grid generation             ....       0.229 sec  (  9.6%)


-------------------------------------------------------------------------------
                          DFT DISPERSION CORRECTION                            
                                                                               
                              DFTD3 V3.1  Rev 1                                
                          USING Becke-Johnson damping                          
-------------------------------------------------------------------------------
The PBE0 functional is recognized
Active option DFTDOPT                   ...         4   

molecular C6(AA) [au] = 484.497950 


            DFT-D V3
 parameters
 s6 scaling factor         :     1.0000 
 a1 scaling factor         :     0.4145 
 s8 scaling factor         :     1.2177 
 a2 scaling factor         :     4.8593 
 ad hoc parameters k1-k3   :    16.0000     1.3333    -4.0000 

 Edisp/kcal,au: -1.508837647796  -0.002404485588 
 E6   /kcal   :  -0.953361670 
 E8   /kcal   :  -0.555475977 
 % E8         :  36.814827507 

-------------------------   ----------------
Dispersion correction           -0.002404486
-------------------------   ----------------


-------------------------   --------------------
FINAL SINGLE POINT ENERGY      -599.479026434860
-------------------------   --------------------

                                *** OPTIMIZATION RUN DONE ***

                            ***************************************
                            *     ORCA property calculations      *
                            ***************************************

                                    ---------------------
                                    Active property flags
                                    ---------------------
   (+) Dipole Moment


------------------------------------------------------------------------------
                       ORCA ELECTRIC PROPERTIES CALCULATION
------------------------------------------------------------------------------

Dipole Moment Calculation                       ... on
Quadrupole Moment Calculation                   ... off
Polarizability Calculation                      ... off
GBWName                                         ... ts_guess_orca_constrained_opt.gbw
Electron density file                           ... ts_guess_orca_constrained_opt.scfp.tmp
The origin for moment calculation is the CENTER OF MASS  = ( 0.137602,  0.040576 -0.001001)

-------------
DIPOLE MOMENT
-------------
                                X             Y             Z
Electronic contribution:      2.98522       0.17448      -0.02907
Nuclear contribution   :     -1.58492      -0.17573       0.00497
                        -----------------------------------------
Total Dipole Moment    :      1.40031      -0.00125      -0.02410
                        -----------------------------------------
Magnitude (a.u.)       :      1.40051
Magnitude (Debye)      :      3.55982



--------------------
Rotational spectrum 
--------------------
 
Rotational constants in cm-1:     4.764852     0.076924     0.076913 
Rotational constants in MHz : 142846.675918  2306.119876  2305.790924 

 Dipole components along the rotational axes: 
x,y,z [a.u.] :    -1.399741     0.046384    -0.003089 
x,y,z [Debye]:    -3.557860     0.117898    -0.007852 

 

Timings for individual modules:

Sum of individual times         ...       99.829 sec (=   1.664 min)
GTO integral calculation        ...       13.085 sec (=   0.218 min)  13.1 %
SCF iterations                  ...       67.708 sec (=   1.128 min)  67.8 %
SCF Gradient evaluation         ...       18.623 sec (=   0.310 min)  18.7 %
Geometry relaxation             ...        0.413 sec (=   0.007 min)   0.4 %
                             ****ORCA TERMINATED NORMALLY****
TOTAL RUN TIME: 0 days 0 hours 1 minutes 42 seconds 332 msec
