
                                 *****************
                                 * O   R   C   A *
                                 *****************

           --- An Ab Initio, DFT and Semiempirical electronic structure package ---

                  #######################################################
                  #                        -***-                        #
                  #          Department of theory and spectroscopy      #
                  #               Directorship: Frank Neese             #
                  #        Max Planck Institute fuer Kohlenforschung    #
                  #                Kaiser Wilhelm Platz 1               #
                  #                 D-45470 Muelheim/Ruhr               #
                  #                      Germany                        #
                  #                                                     #
                  #                  All rights reserved                #
                  #                        -***-                        #
                  #######################################################


                         Program Version 4.1.1  - RELEASE  -


 With contributions from (in alphabetic order):
   Daniel Aravena         : Magnetic Properties
   Michael Atanasov       : Ab Initio Ligand Field Theory
   Alexander A. Auer      : GIAO ZORA
   Ute Becker             : Parallelization
   Giovanni Bistoni       : ED, Open-shell LED
   Martin Brehm           : Molecular dynamics
   Dmytro Bykov           : SCF Hessian
   Vijay G. Chilkuri      : MRCI spin determinant printing
   Dipayan Datta          : RHF DLPNO-CCSD density
   Achintya Kumar Dutta   : EOM-CC, STEOM-CC
   Dmitry Ganyushin       : Spin-Orbit,Spin-Spin,Magnetic field MRCI
   Miquel Garcia          : C-PCM Hessian
   Yang Guo               : DLPNO-NEVPT2, CIM, IAO-localization
   Andreas Hansen         : Spin unrestricted coupled pair/coupled cluster methods
   Benjamin Helmich-Paris : CASSCF linear response (MC-RPA)
   Lee Huntington         : MR-EOM, pCC
   Robert Izsak           : Overlap fitted RIJCOSX, COSX-SCS-MP3, EOM
   Christian Kollmar      : KDIIS, OOCD, Brueckner-CCSD(T), CCSD density
   Simone Kossmann        : Meta GGA functionals, TD-DFT gradient, OOMP2, MP2 Hessian
   Martin Krupicka        : AUTO-CI
   Lucas Lang             : DCDCAS
   Dagmar Lenk            : GEPOL surface, SMD
   Dimitrios Liakos       : Extrapolation schemes; parallel MDCI
   Dimitrios Manganas     : ROCIS; embedding schemes
   Dimitrios Pantazis     : SARC Basis sets
   Taras Petrenko         : DFT Hessian,TD-DFT gradient, ASA, ECA, R-Raman, ABS, FL, XAS/XES, NRVS
   Peter Pinski           : DLPNO-MP2, DLPNO-MP2 Gradient
   Christoph Reimann      : Effective Core Potentials
   Marius Retegan         : Local ZFS, SOC
   Christoph Riplinger    : Optimizer, TS searches, QM/MM, DLPNO-CCSD(T), (RO)-DLPNO pert. Triples
   Tobias Risthaus        : Range-separated hybrids, TD-DFT gradient, RPA, STAB
   Michael Roemelt        : Restricted open shell CIS
   Masaaki Saitow         : Open-shell DLPNO
   Barbara Sandhoefer     : DKH picture change effects
   Avijit Sen             : IP-ROCIS
   Kantharuban Sivalingam : CASSCF convergence, NEVPT2, FIC-MRCI
   Bernardo de Souza      : ESD, SOC TD-DFT
   Georgi Stoychev        : AutoAux, RI-MP2 NMR
   Willem Van den Heuvel  : Paramagnetic NMR
   Boris Wezisla          : Elementary symmetry handling
   Frank Wennmohs         : Technical directorship


 We gratefully acknowledge several colleagues who have allowed us to
 interface, adapt or use parts of their codes:
   Stefan Grimme, W. Hujo, H. Kruse,             : VdW corrections, initial TS optimization,
                  C. Bannwarth                     DFT functionals, gCP, sTDA/sTD-DF
   Ed Valeev                                     : LibInt (2-el integral package), F12 methods
   Garnet Chan, S. Sharma, J. Yang, R. Olivares  : DMRG
   Ulf Ekstrom                                   : XCFun DFT Library
   Mihaly Kallay                                 : mrcc  (arbitrary order and MRCC methods)
   Andreas Klamt, Michael Diedenhofen            : otool_cosmo (COSMO solvation model)
   Jiri Pittner, Ondrej Demel                    : Mk-CCSD
   Frank Weinhold                                : gennbo (NPA and NBO analysis)
   Christopher J. Cramer and Donald G. Truhlar   : smd solvation model
   Lars Goerigk                                  : TD-DFT with DH, B97 family of functionals
   V. Asgeirsson, H. Jonsson                     : NEB implementation
   FAccTs GmbH                                   : IRC, NEB, NEB-TS, Multilevel


 Your calculation uses the libint2 library for the computation of 2-el integrals
 For citations please refer to: http://libint.valeyev.net

 This ORCA versions uses:
   CBLAS   interface :  Fast vector & matrix operations
   LAPACKE interface :  Fast linear algebra routines
   SCALAPACK package :  Parallel linear algebra routines


Your calculation utilizes the atom-pairwise dispersion correction
with the Becke-Johnson damping scheme (D3BJ)
Cite in your paper:
S.Grimme, S.Ehrlich, L.Goerigk, J Comput Chem, (2011), 32, 1456–1465 
S.Grimme, J.Antony, S.Ehrlich and H.Krieg, J.Chem.Phys., 132, (2010), 154104 
   

Your calculation utilizes the SMD solvation module
Please cite in your paper:
A.V. Marenich, C.J. Cramer, D.G. Truhlar J. Phys. Chem. B, 113, (2009), 6378 

----- Orbital basis set information -----
Your calculation utilizes the basis: def2-SVP
   F. Weigend and R. Ahlrichs, Phys. Chem. Chem. Phys. 7, 3297 (2005).

----- AuxJ basis set information -----
Your calculation utilizes the auxiliary basis: def2/J
   F. Weigend, Phys. Chem. Chem. Phys. 8, 1057 (2006).

================================================================================
                                        WARNINGS
                       Please study these warnings very carefully!
================================================================================


WARNING: Geometry Optimization
  ===> : Switching off AutoStart
         For restart on a previous wavefunction, please use MOREAD

INFO   : the flag for use of LIBINT has been found!

================================================================================
                                       INPUT FILE
================================================================================
NAME = template_ts_guess_orca_constrained_opt.inp
|  1> ! Opt PBE0 RIJCOSX D3BJ def2-SVP def2/J PAL8
|  2> %cpcm
|  3>  smd true
|  4>  SMDsolvent "water"
|  5>  end
|  6> %geom Constraints
|  7> { B 1 3 2.061172497129728 C }
|  8>     end
|  9> end
| 10> %geom MaxIter 100 end
| 11> %scf 
| 12> maxiter 250 
| 13> end
| 14> % maxcore 4000
| 15> *xyz -1 1
| 16> C   1.28070000 -0.07560000  0.22550000 
| 17> C  -0.05860000  0.30410000 -0.37870000 
| 18> O   0.03410000  0.37220000 -1.76880000 
| 19> C  -0.51650000  1.58180000  0.16610000 
| 20> N  -0.88530000  2.59670000  0.58100000 
| 21> C  -1.02650000 -0.80750000 -0.03550000 
| 22> H   1.87730000 -0.55030000 -0.57860000 
| 23> H   1.16280000 -0.84200000  1.03090000 
| 24> H   1.78480000  0.79440000  0.66810000 
| 25> H  -0.71780000 -1.26180000  0.94820000 
| 26> H  -0.86180000 -1.60650000 -0.80370000 
| 27> H  -2.07330000 -0.50550000 -0.05460000 
| 28> *
| 29> 
| 30>                          ****END OF INPUT****
================================================================================

                       *****************************
                       * Geometry Optimization Run *
                       *****************************

Geometry optimization settings:
Update method            Update   .... BFGS
Choice of coordinates    CoordSys .... Z-matrix Internals
Initial Hessian          InHess   .... Almoef's Model

Convergence Tolerances:
Energy Change            TolE     ....  5.0000e-06 Eh
Max. Gradient            TolMAXG  ....  3.0000e-04 Eh/bohr
RMS Gradient             TolRMSG  ....  1.0000e-04 Eh/bohr
Max. Displacement        TolMAXD  ....  4.0000e-03 bohr
RMS Displacement         TolRMSD  ....  2.0000e-03 bohr

------------------------------------------------------------------------------
                        ORCA OPTIMIZATION COORDINATE SETUP
------------------------------------------------------------------------------

The optimization will be done in new redundant internal coordinates
Making redundant internal coordinates   ...  (new redundants) done
Evaluating the initial hessian          ...  (Almloef) done
Evaluating the coordinates              ...  done
Calculating the B-matrix                .... done
Calculating the G-matrix                .... done
Diagonalizing the G-matrix              .... done
Imposing constraints:
 Iter   0:  RMS(Cart)=    0.0425083658 RMS(Int)=    0.9312431465
 Iter   1:  RMS(Cart)=    0.0425083658 RMS(Int)=    0.7311732292
 Iter   2:  RMS(Cart)=    0.0425083658 RMS(Int)=    0.5310667798
 Iter   3:  RMS(Cart)=    0.0425083658 RMS(Int)=    0.3309299514
 Iter   4:  RMS(Cart)=    0.0425083658 RMS(Int)=    0.1307675895
 Iter   5:  RMS(Cart)=    0.0277935827 RMS(Int)=    0.0001180809
 Iter   6:  RMS(Cart)=    0.0000250971 RMS(Int)=    0.0000001105
 Iter   7:  RMS(Cart)=    0.0000000235 RMS(Int)=    0.0000000001
CONVERGED
The first mode is                       ....   19
The number of degrees of freedom        ....   30
Storing new coordinates                 .... done

    -----------------------------------------------------------------
                    Redundant Internal Coordinates


    -----------------------------------------------------------------
         Definition                    Initial Value    Approx d2E/dq
    -----------------------------------------------------------------
      1. B(C   1,C   0)                  1.5177         0.391059   
      2. B(O   2,C   1)                  1.3953         0.549713   
      3. B(C   3,C   1)                  2.0612         0.478652 C 
      4. B(N   4,C   3)                  1.1571         1.318066   
      5. B(C   5,C   1)                  1.5135         0.397117   
      6. B(H   6,C   0)                  1.1084         0.336955   
      7. B(H   7,C   0)                  1.1183         0.324893   
      8. B(H   8,C   0)                  1.0988         0.348907   
      9. B(H   9,C   5)                  1.1270         0.314734   
     10. B(H  10,C   5)                  1.1209         0.321858   
     11. B(H  11,C   5)                  1.0898         0.360550   
     12. A(C   1,C   0,H   7)          111.4363         0.321295   
     13. A(C   1,C   0,H   6)          107.0585         0.323219   
     14. A(H   6,C   0,H   8)          112.6296         0.286411   
     15. A(H   7,C   0,H   8)          107.5160         0.284789   
     16. A(C   1,C   0,H   8)          111.5304         0.325074   
     17. A(H   6,C   0,H   7)          106.6090         0.283251   
     18. A(O   2,C   1,C   3)          110.8677         0.403089   
     19. A(C   0,C   1,C   3)          110.0647         0.382202   
     20. A(C   3,C   1,C   5)          110.7076         0.383224   
     21. A(C   0,C   1,O   2)          110.5124         0.389044   
     22. A(O   2,C   1,C   5)          107.7248         0.390090   
     23. A(C   0,C   1,C   5)          106.8630         0.370068   
     24. L(C   1,C   3,N   4,C   5, 1) 180.3326         0.471839   
     25. L(C   1,C   3,N   4,C   5, 2) 182.2344         0.471839   
     26. A(C   1,C   5,H   9)          108.6103         0.320434   
     27. A(C   1,C   5,H  10)          105.9175         0.321610   
     28. A(H   9,C   5,H  10)          105.7096         0.279868   
     29. A(C   1,C   5,H  11)          113.9923         0.327664   
     30. A(H   9,C   5,H  11)          112.9703         0.284836   
     31. A(H  10,C   5,H  11)          109.0836         0.285831   
     32. D(O   2,C   1,C   0,H   7)   -136.3074         0.012155   
     33. D(C   5,C   1,C   0,H   7)    -19.3668         0.012155   
     34. D(C   3,C   1,C   0,H   7)    100.9032         0.012155   
     35. D(O   2,C   1,C   0,H   6)    -20.0957         0.012155   
     36. D(C   5,C   1,C   0,H   8)   -139.5319         0.012155   
     37. D(C   3,C   1,C   0,H   8)    -19.2619         0.012155   
     38. D(C   3,C   1,C   0,H   6)   -142.8851         0.012155   
     39. D(C   5,C   1,C   0,H   6)     96.8449         0.012155   
     40. D(O   2,C   1,C   0,H   8)    103.5275         0.012155   
     41. D(H  10,C   5,C   1,C   3)    157.3093         0.012519   
     42. D(H   9,C   5,C   1,O   2)    149.0849         0.012519   
     43. D(H   9,C   5,C   1,C   3)    -89.5416         0.012519   
     44. D(H  10,C   5,C   1,C   0)    -82.8334         0.012519   
     45. D(H   9,C   5,C   1,C   0)     30.3156         0.012519   
     46. D(H  10,C   5,C   1,O   2)     35.9359         0.012519   
     47. D(H  11,C   5,C   1,C   0)    157.2284         0.012519   
     48. D(H  11,C   5,C   1,O   2)    -84.0022         0.012519   
     49. D(H  11,C   5,C   1,C   3)     37.3712         0.012519   
    -----------------------------------------------------------------

Number of atoms                         .... 12
Number of degrees of freedom            .... 49

         *************************************************************
         *                GEOMETRY OPTIMIZATION CYCLE   1            *
         *************************************************************
---------------------------------
CARTESIAN COORDINATES (ANGSTROEM)
---------------------------------
  C      1.309865   -0.160393    0.199714
  C     -0.023889    0.208159   -0.423785
  O      0.079624    0.242943   -1.814796
  C     -0.670200    2.022636    0.309966
  N     -1.037975    3.047710    0.700891
  C     -0.997104   -0.892932   -0.061537
  H      1.911478   -0.655677   -0.588515
  H      1.183943   -0.907335    1.022456
  H      1.812676    0.718925    0.625465
  H     -0.697038   -1.324560    0.935343
  H     -0.828450   -1.710617   -0.809455
  H     -2.043028   -0.588857   -0.095846

----------------------------
CARTESIAN COORDINATES (A.U.)
----------------------------
  NO LB      ZA    FRAG     MASS         X           Y           Z
   0 C     6.0000    0    12.011    2.475285   -0.303100    0.377405
   1 C     6.0000    0    12.011   -0.045144    0.393364   -0.800837
   2 O     8.0000    0    15.999    0.150468    0.459096   -3.429467
   3 C     6.0000    0    12.011   -1.266495    3.822227    0.585750
   4 N     7.0000    0    14.007   -1.961488    5.759336    1.324491
   5 C     6.0000    0    12.011   -1.884254   -1.687397   -0.116289
   6 H     1.0000    0     1.008    3.612169   -1.239050   -1.112132
   7 H     1.0000    0     1.008    2.237328   -1.714616    1.932161
   8 H     1.0000    0     1.008    3.425461    1.358571    1.181957
   9 H     1.0000    0     1.008   -1.317211   -2.503056    1.767541
  10 H     1.0000    0     1.008   -1.565544   -3.232598   -1.529648
  11 H     1.0000    0     1.008   -3.860764   -1.112779   -0.181122

--------------------------------
INTERNAL COORDINATES (ANGSTROEM)
--------------------------------
 C      0   0   0     0.000000000000     0.00000000     0.00000000
 C      1   0   0     1.517548753747     0.00000000     0.00000000
 O      2   1   0     1.394850855827   110.50866792     0.00000000
 C      2   1   3     1.462530936425   110.27879376   237.59540371
 N      4   2   1     1.156796205042   179.11577466   142.82173772
 C      2   1   3     1.513364202695   106.88030729   116.94333969
 H      1   2   3     1.108083236946   107.06375812   339.90250152
 H      1   2   3     1.118006498192   111.42396341   223.69189055
 H      1   2   3     1.098595271244   111.54435025   103.52154162
 H      6   2   1     1.126654281490   108.59919036    30.31291195
 H      6   2   1     1.120561613656   105.91841282   277.16748674
 H      6   2   1     1.089660061671   114.00796087   157.23071052

---------------------------
INTERNAL COORDINATES (A.U.)
---------------------------
 C      0   0   0     0.000000000000     0.00000000     0.00000000
 C      1   0   0     2.867751539456     0.00000000     0.00000000
 O      2   1   0     2.635886115178   110.50866792     0.00000000
 C      2   1   3     2.763782932231   110.27879376   237.59540371
 N      4   2   1     2.186028020289   179.11577466   142.82173772
 C      2   1   3     2.859843883974   106.88030729   116.94333969
 H      1   2   3     2.093973851416   107.06375812   339.90250152
 H      1   2   3     2.112726097528   111.42396341   223.69189055
 H      1   2   3     2.076044194672   111.54435025   103.52154162
 H      6   2   1     2.129068039626   108.59919036    30.31291195
 H      6   2   1     2.117554565995   105.91841282   277.16748674
 H      6   2   1     2.059159095629   114.00796087   157.23071052

---------------------
BASIS SET INFORMATION
---------------------
There are 4 groups of distinct atoms

 Group   1 Type C   : 7s4p1d contracted to 3s2p1d pattern {511/31/1}
 Group   2 Type O   : 7s4p1d contracted to 3s2p1d pattern {511/31/1}
 Group   3 Type N   : 7s4p1d contracted to 3s2p1d pattern {511/31/1}
 Group   4 Type H   : 4s1p contracted to 2s1p pattern {31/1}

Atom   0C    basis set group =>   1
Atom   1C    basis set group =>   1
Atom   2O    basis set group =>   2
Atom   3C    basis set group =>   1
Atom   4N    basis set group =>   3
Atom   5C    basis set group =>   1
Atom   6H    basis set group =>   4
Atom   7H    basis set group =>   4
Atom   8H    basis set group =>   4
Atom   9H    basis set group =>   4
Atom  10H    basis set group =>   4
Atom  11H    basis set group =>   4
-------------------------------
AUXILIARY BASIS SET INFORMATION
-------------------------------
There are 4 groups of distinct atoms

 Group   1 Type C   : 12s5p4d2f1g contracted to 6s4p3d1f1g pattern {711111/2111/211/2/1}
 Group   2 Type O   : 12s5p4d2f1g contracted to 6s4p3d1f1g pattern {711111/2111/211/2/1}
 Group   3 Type N   : 12s5p4d2f1g contracted to 6s4p3d1f1g pattern {711111/2111/211/2/1}
 Group   4 Type H   : 5s2p1d contracted to 3s1p1d pattern {311/2/1}

Atom   0C    basis set group =>   1
Atom   1C    basis set group =>   1
Atom   2O    basis set group =>   2
Atom   3C    basis set group =>   1
Atom   4N    basis set group =>   3
Atom   5C    basis set group =>   1
Atom   6H    basis set group =>   4
Atom   7H    basis set group =>   4
Atom   8H    basis set group =>   4
Atom   9H    basis set group =>   4
Atom  10H    basis set group =>   4
Atom  11H    basis set group =>   4


           ************************************************************
           *        Program running with 8 parallel MPI-processes     *
           *              working on a common directory               *
           ************************************************************
------------------------------------------------------------------------------
                           ORCA GTO INTEGRAL CALCULATION
                           -- RI-GTO INTEGRALS CHOSEN --
------------------------------------------------------------------------------

                         BASIS SET STATISTICS AND STARTUP INFO

Gaussian basis set:
 # of primitive gaussian shells          ...  102
 # of primitive gaussian functions       ...  186
 # of contracted shells                  ...   54
 # of contracted basis functions         ...  114
 Highest angular momentum                ...    2
 Maximum contraction depth               ...    5
Auxiliary gaussian basis set:
 # of primitive gaussian shells          ...  192
 # of primitive gaussian functions       ...  516
 # of contracted shells                  ...  120
 # of contracted aux-basis functions     ...  360
 Highest angular momentum                ...    4
 Maximum contraction depth               ...    7
Ratio of auxiliary to basis functions    ...  3.16
Integral package used                  ... LIBINT
 One Electron integrals                  ... done
 Ordering auxiliary basis shells         ... done
 Integral threshhold             Thresh  ...  2.500e-11
 Primitive cut-off               TCut    ...  2.500e-12
 Pre-screening matrix                    ... done
 Shell pair data                         ... 
 Ordering of the shell pairs             ... done (   0.000 sec) 1441 of 1485 pairs
 Determination of significant pairs      ... done (   0.000 sec)
 Creation of shell pair data             ... done (   0.000 sec)
 Storage of shell pair data              ... done (   0.000 sec)
 Shell pair data done in (   0.001 sec)
 Computing two index integrals           ... done
 Cholesky decomposition of the V-matrix  ... done


Timings:
 Total evaluation time                   ...   0.173 sec (  0.003 min)
 One electron matrix time                ...   0.017 sec (  0.000 min) =  9.9%
 Schwartz matrix evaluation time         ...   0.134 sec (  0.002 min) = 77.2%
 Two index repulsion integral time       ...   0.003 sec (  0.000 min) =  1.9%
 Cholesky decomposition of V             ...   0.002 sec (  0.000 min) =  1.3%
 Three index repulsion integral time     ...   0.000 sec (  0.000 min) =  0.0%



           ************************************************************
           *        Program running with 8 parallel MPI-processes     *
           *              working on a common directory               *
           ************************************************************
-------------------------------------------------------------------------------
                                 ORCA SCF
-------------------------------------------------------------------------------

------------
SCF SETTINGS
------------
Hamiltonian:
 Density Functional     Method          .... DFT(GTOs)
 Exchange Functional    Exchange        .... PBE
   PBE kappa parameter   XKappa         ....  0.804000
   PBE mue parameter    XMuePBE         ....  0.219520
 Correlation Functional Correlation     .... PBE
   PBE beta parameter  CBetaPBE         ....  0.066725
 LDA part of GGA corr.  LDAOpt          .... PW91-LDA
 Gradients option       PostSCFGGA      .... off
 Hybrid DFT is turned on
   Fraction HF Exchange ScalHFX         ....  0.250000
   Scaling of DF-GGA-X  ScalDFX         ....  0.750000
   Scaling of DF-GGA-C  ScalDFC         ....  1.000000
   Scaling of DF-LDA-C  ScalLDAC        ....  1.000000
   Perturbative correction              ....  0.000000
   Density functional embedding theory  .... OFF
   NL short-range parameter             ....  6.900000
 RI-approximation to the Coulomb term is turned on
   Number of auxiliary basis functions  .... 360
   RIJ-COSX (HFX calculated with COS-X)).... on


General Settings:
 Integral files         IntName         .... template_ts_guess_orca_constrained_opt
 Hartree-Fock type      HFTyp           .... RHF
 Total Charge           Charge          ....   -1
 Multiplicity           Mult            ....    1
 Number of Electrons    NEL             ....   46
 Basis Dimension        Dim             ....  114
 Nuclear Repulsion      ENuc            ....    204.0925821802 Eh

Convergence Acceleration:
 DIIS                   CNVDIIS         .... on
   Start iteration      DIISMaxIt       ....    12
   Startup error        DIISStart       ....  0.200000
   # of expansion vecs  DIISMaxEq       ....     5
   Bias factor          DIISBfac        ....   1.050
   Max. coefficient     DIISMaxC        ....  10.000
 Newton-Raphson         CNVNR           .... off
 SOSCF                  CNVSOSCF        .... on
   Start iteration      SOSCFMaxIt      ....   150
   Startup grad/error   SOSCFStart      ....  0.003300
 Level Shifting         CNVShift        .... on
   Level shift para.    LevelShift      ....    0.2500
   Turn off err/grad.   ShiftErr        ....    0.0010
 Zerner damping         CNVZerner       .... off
 Static damping         CNVDamp         .... on
   Fraction old density DampFac         ....    0.7000
   Max. Damping (<1)    DampMax         ....    0.9800
   Min. Damping (>=0)   DampMin         ....    0.0000
   Turn off err/grad.   DampErr         ....    0.1000
 Fernandez-Rico         CNVRico         .... off

SCF Procedure:
 Maximum # iterations   MaxIter         ....   250
 SCF integral mode      SCFMode         .... Direct
   Integral package                     .... LIBINT
 Reset frequency        DirectResetFreq ....    20
 Integral Threshold     Thresh          ....  2.500e-11 Eh
 Primitive CutOff       TCut            ....  2.500e-12 Eh

Convergence Tolerance:
 Convergence Check Mode ConvCheckMode   .... Total+1el-Energy
 Convergence forced     ConvForced      .... 0
 Energy Change          TolE            ....  1.000e-08 Eh
 1-El. energy change                    ....  1.000e-05 Eh
 Orbital Gradient       TolG            ....  1.000e-05
 Orbital Rotation angle TolX            ....  1.000e-05
 DIIS Error             TolErr          ....  5.000e-07


Diagonalization of the overlap matrix:
Smallest eigenvalue                        ... 1.623e-03
Time for diagonalization                   ...    0.004 sec
Threshold for overlap eigenvalues          ... 1.000e-08
Number of eigenvalues below threshold      ... 0
Time for construction of square roots      ...    0.002 sec
Total time needed                          ...    0.006 sec

-------------------
DFT GRID GENERATION
-------------------

General Integration Accuracy     IntAcc      ...  4.340
Radial Grid Type                 RadialGrid  ... Gauss-Chebyshev
Angular Grid (max. acc.)         AngularGrid ... Lebedev-110
Angular grid pruning method      GridPruning ... 3 (G Style)
Weight generation scheme         WeightScheme... Becke
Basis function cutoff            BFCut       ...    1.0000e-11
Integration weight cutoff        WCut        ...    1.0000e-14
Grids for H and He will be reduced by one unit

# of grid points (after initial pruning)     ...  14806 (   0.0 sec)
# of grid points (after weights+screening)   ...  13960 (   0.0 sec)
nearest neighbour list constructed           ...    0.0 sec
Grid point re-assignment to atoms done       ...    0.0 sec
Grid point division into batches done        ...    0.0 sec
Reduced shell lists constructed in    0.0 sec

Total number of grid points                  ...    13960
Total number of batches                      ...      225
Average number of points per batch           ...       62
Average number of grid points per atom       ...     1163
Average number of shells per batch           ...    47.90 (88.70%)
Average number of basis functions per batch  ...   102.50 (89.91%)
Average number of large shells per batch     ...    43.13 (90.05%)
Average number of large basis fcns per batch ...    90.73 (88.52%)
Maximum spatial batch extension              ...   3.24,  2.52,  3.06 au
Average spatial batch extension              ...   0.21,  0.19,  0.20 au

Time for grid setup =    0.040 sec

------------------------------
INITIAL GUESS: MODEL POTENTIAL
------------------------------
Loading Hartree-Fock densities                     ... done
Calculating cut-offs                               ... done
Setting up the integral package                    ... done
Initializing the effective Hamiltonian             ... done
Starting the Coulomb interaction                   ... done (   0.0 sec)
Reading the grid                                   ... done
Mapping shells                                     ... done
Starting the XC term evaluation                    ... done (   0.0 sec)
  promolecular density results
     # of electrons  =     45.001734806
     EX              =    -36.686576005
     EC              =     -1.443486864
     EX+EC           =    -38.130062870
Transforming the Hamiltonian                       ... done (   0.0 sec)
Diagonalizing the Hamiltonian                      ... done (   0.0 sec)
Back transforming the eigenvectors                 ... done (   0.0 sec)
Now organizing SCF variables                       ... done
                      ------------------
                      INITIAL GUESS DONE (   0.2 sec)
                      ------------------
--------------------
COSX GRID GENERATION
--------------------

General Integration Accuracy     IntAcc      ...  3.340
Radial Grid Type                 RadialGrid  ... Gauss-Chebyshev
Angular Grid (max. acc.)         AngularGrid ... Lebedev-50
Angular grid pruning method      GridPruning ... 3 (G Style)
Weight generation scheme         WeightScheme... Becke
Basis function cutoff            BFCut       ...    1.0000e-11
Integration weight cutoff        WCut        ...    1.0000e-14
Grids for H and He will be reduced by one unit

# of grid points (after initial pruning)     ...   5386 (   0.0 sec)
# of grid points (after weights+screening)   ...   5091 (   0.0 sec)
nearest neighbour list constructed           ...    0.0 sec
Grid point re-assignment to atoms done       ...    0.0 sec
Grid point division into batches done        ...    0.0 sec
Reduced shell lists constructed in    0.0 sec

Total number of grid points                  ...     5091
Total number of batches                      ...       85
Average number of points per batch           ...       59
Average number of grid points per atom       ...      424
Average number of shells per batch           ...    45.75 (84.72%)
Average number of basis functions per batch  ...    98.08 (86.04%)
Average number of large shells per batch     ...    41.83 (91.44%)
Average number of large basis fcns per batch ...    88.33 (90.06%)
Maximum spatial batch extension              ...   3.03,  2.67,  2.58 au
Average spatial batch extension              ...   0.26,  0.24,  0.26 au

Overlap Fitting                  UseSFitting ... on
Constructing numerical overlap ... done (      0.0 sec)
Inverting numerical overlap    ... done (      0.0 sec)
Obtaining analytic overlap     ... done (      0.0 sec)
Final contraction and storage  ... done (      0.0 sec)


General Integration Accuracy     IntAcc      ...  3.670
Radial Grid Type                 RadialGrid  ... Gauss-Chebyshev
Angular Grid (max. acc.)         AngularGrid ... Lebedev-50
Angular grid pruning method      GridPruning ... 3 (G Style)
Weight generation scheme         WeightScheme... Becke
Basis function cutoff            BFCut       ...    1.0000e-11
Integration weight cutoff        WCut        ...    1.0000e-14
Grids for H and He will be reduced by one unit

# of grid points (after initial pruning)     ...   6876 (   0.0 sec)
# of grid points (after weights+screening)   ...   6485 (   0.0 sec)
nearest neighbour list constructed           ...    0.0 sec
Grid point re-assignment to atoms done       ...    0.0 sec
Grid point division into batches done        ...    0.0 sec
Reduced shell lists constructed in    0.0 sec

Total number of grid points                  ...     6485
Total number of batches                      ...      107
Average number of points per batch           ...       60
Average number of grid points per atom       ...      540
Average number of shells per batch           ...    46.40 (85.93%)
Average number of basis functions per batch  ...    99.20 (87.02%)
Average number of large shells per batch     ...    42.33 (91.24%)
Average number of large basis fcns per batch ...    88.87 (89.58%)
Maximum spatial batch extension              ...   2.76,  3.49,  2.61 au
Average spatial batch extension              ...   0.27,  0.26,  0.22 au

Overlap Fitting                  UseSFitting ... on
Constructing numerical overlap ... done (      0.0 sec)
Inverting numerical overlap    ... done (      0.0 sec)
Obtaining analytic overlap     ... done (      0.0 sec)
Final contraction and storage  ... done (      0.0 sec)


General Integration Accuracy     IntAcc      ...  4.010
Radial Grid Type                 RadialGrid  ... Gauss-Chebyshev
Angular Grid (max. acc.)         AngularGrid ... Lebedev-110
Angular grid pruning method      GridPruning ... 3 (G Style)
Weight generation scheme         WeightScheme... Becke
Basis function cutoff            BFCut       ...    1.0000e-11
Integration weight cutoff        WCut        ...    1.0000e-14
Grids for H and He will be reduced by one unit

# of grid points (after initial pruning)     ...  12770 (   0.0 sec)
# of grid points (after weights+screening)   ...  12058 (   0.0 sec)
nearest neighbour list constructed           ...    0.0 sec
Grid point re-assignment to atoms done       ...    0.0 sec
Grid point division into batches done        ...    0.0 sec
Reduced shell lists constructed in    0.0 sec

Total number of grid points                  ...    12058
Total number of batches                      ...      194
Average number of points per batch           ...       62
Average number of grid points per atom       ...     1005
Average number of shells per batch           ...    47.77 (88.46%)
Average number of basis functions per batch  ...   102.46 (89.88%)
Average number of large shells per batch     ...    43.12 (90.26%)
Average number of large basis fcns per batch ...    90.81 (88.63%)
Maximum spatial batch extension              ...   3.00,  2.43,  2.89 au
Average spatial batch extension              ...   0.22,  0.21,  0.22 au

Overlap Fitting                  UseSFitting ... on
Constructing numerical overlap ... done (      0.0 sec)
Inverting numerical overlap    ... done (      0.0 sec)
Obtaining analytic overlap     ... done (      0.0 sec)
Final contraction and storage  ... done (      0.0 sec)

Time for X-Grid setup             =    0.130 sec

--------------------
CPCM SOLVATION MODEL
--------------------
CPCM parameters:
  Epsilon                                         ...      78.3550
  Refrac                                          ...       1.0000
  Rsolv                                           ...       1.3000
  Surface type                                    ...    GEPOL SES
  Epsilon function type                           ...         CPCM
Solvent:                                     ... WATER
SMD-CDS solvent descriptors:
  Soln                                       ...    1.3328
  Soln25                                     ...    1.3323
  Sola                                       ...    0.0000
  Solb                                       ...    0.0000
  Solg                                       ...    0.0000
  Solc                                       ...    0.0000
  Solh                                       ...    0.0000
Radii:
 Radius for C  used is    3.4960 Bohr (=   1.8500 Ang.)
 Radius for O  used is    2.8724 Bohr (=   1.5200 Ang.)
 Radius for N  used is    3.5716 Bohr (=   1.8900 Ang.)
 Radius for H  used is    2.2677 Bohr (=   1.2000 Ang.)
Calculating surface                               ...        done! (  0.0s)
GEPOL surface points                              ...          532
GEPOL Volume                                      ...     718.0740
GEPOL Surface-area                                ...     460.9912
Calculating surface distance matrix               ...        done! (  0.0s)
Performing Cholesky decomposition & store         ...        done! (  0.0s)
Overall time for CPCM initialization              ...                 0.0s
--------------
SCF ITERATIONS
--------------
ITER       Energy         Delta-E        Max-DP      RMS-DP      [F,P]     Damp
               ***  Starting incremental Fock matrix formation  ***
  0   -285.2114797102   0.000000000000 0.11076160  0.00418841  0.3242108 0.7000
  1   -285.3506330455  -0.139153335300 0.06387892  0.00274667  0.1308599 0.7000
                               ***Turning on DIIS***
  2   -285.3991562213  -0.048523175720 0.09531085  0.00416460  0.0378660 0.0000
  3   -285.4837377350  -0.084581513746 0.05332507  0.00200189  0.0668055 0.0000
  4   -285.4984700945  -0.014732359480 0.02143980  0.00062551  0.0204298 0.0000
  5   -285.5002822151  -0.001812120652 0.00613172  0.00021084  0.0038790 0.0000
                      *** Initiating the SOSCF procedure ***
                           *** Shutting down DIIS ***
                      *** Re-Reading the Fockian *** 
                      *** Removing any level shift *** 
ITER      Energy       Delta-E        Grad      Rot      Max-DP    RMS-DP
  6   -285.50035947  -0.0000772584  0.000364  0.000364  0.001389  0.000074
               *** Restarting incremental Fock matrix formation ***
  7   -285.50036543  -0.0000059598  0.000236  0.000710  0.001254  0.000053
  8   -285.50036629  -0.0000008570  0.000197  0.000325  0.000410  0.000022
  9   -285.50036652  -0.0000002264  0.000142  0.000200  0.000351  0.000016
 10   -285.50036672  -0.0000002025  0.000034  0.000040  0.000112  0.000005
 11   -285.50036675  -0.0000000314  0.000037  0.000037  0.000075  0.000003
 12   -285.50036675  -0.0000000032  0.000012  0.000031  0.000045  0.000002
 13   -285.50036676  -0.0000000016  0.000007  0.000016  0.000027  0.000001
                  ***Gradient check signals convergence***
              ***Rediagonalizing the Fockian in SOSCF/NRSCF***

               *****************************************************
               *                     SUCCESS                       *
               *           SCF CONVERGED AFTER  14 CYCLES          *
               *****************************************************

Setting up the final grid:

General Integration Accuracy     IntAcc      ...  4.670
Radial Grid Type                 RadialGrid  ... Gauss-Chebyshev
Angular Grid (max. acc.)         AngularGrid ... Lebedev-302
Angular grid pruning method      GridPruning ... 3 (G Style)
Weight generation scheme         WeightScheme... Becke
Basis function cutoff            BFCut       ...    1.0000e-11
Integration weight cutoff        WCut        ...    1.0000e-14
Grids for H and He will be reduced by one unit

# of grid points (after initial pruning)     ...  57636 (   0.0 sec)
# of grid points (after weights+screening)   ...  53808 (   0.0 sec)
nearest neighbour list constructed           ...    0.0 sec
Grid point re-assignment to atoms done       ...    0.0 sec
Grid point division into batches done        ...    0.2 sec
Reduced shell lists constructed in    0.2 sec

Total number of grid points                  ...    53808
Total number of batches                      ...      846
Average number of points per batch           ...       63
Average number of grid points per atom       ...     4484
Average number of shells per batch           ...    45.60 (84.44%)
Average number of basis functions per batch  ...    97.79 (85.78%)
Average number of large shells per batch     ...    40.60 (89.03%)
Average number of large basis fcns per batch ...    85.16 (87.09%)
Maximum spatial batch extension              ...  14.72, 14.47, 11.69 au
Average spatial batch extension              ...   0.22,  0.20,  0.19 au

Final grid set up in    0.2 sec
Final integration                            ... done (   0.0 sec)
Change in XC energy                          ...     0.000566137
Integrated number of electrons               ...    45.999977125
Previous integrated no of electrons          ...    46.001558801
Old exchange energy                            =     -9.422060563 Eh
New exchange energy                            =     -9.421632416 Eh
Exchange energy change after final integration =      0.000428147 Eh
Total energy after final integration           =   -285.499372477 Eh
Final COS-X integration done in                =     0.207 sec

SMD CDS free energy correction energy :                 6.27660     Kcal/mol
Total Energy after SMD CDS correction =              -285.489370074 Eh

----------------
TOTAL SCF ENERGY
----------------

Total Energy       :         -285.48937007 Eh           -7768.56071 eV

Components:
Nuclear Repulsion  :          204.09258218 Eh            5553.64150 eV
Electronic Energy  :         -489.58195225 Eh          -13322.20221 eV
One Electron Energy:         -801.02998794 Eh          -21797.13412 eV
Two Electron Energy:          311.44803569 Eh            8474.93191 eV
CPCM Dielectric    :           -0.11539470 Eh              -3.14005 eV
SMD CDS (Gcds)     :            0.01000240 Eh               0.27218 eV

Virial components:
Potential Energy   :         -568.10732101 Eh          -15458.98612 eV
Kinetic Energy     :          282.61795094 Eh            7690.42542 eV
Virial Ratio       :            2.01016007


DFT components:
N(Alpha)           :       22.999988562494 electrons
N(Beta)            :       22.999988562494 electrons
N(Total)           :       45.999977124989 electrons
E(X)               :      -28.215048341465 Eh       
E(C)               :       -1.504862472578 Eh       
E(XC)              :      -29.719910814043 Eh       
DFET-embed. en.    :        0.000000000000 Eh       
CPCM Solvation Model Properties:
Surface-charge          :            0.96988410
Charge-correction       :           -0.00494577 Eh              -0.13458 eV
Free-energy (cav+disp)  :            0.00349662 Eh               0.09515 eV
Corrected G(solv)       :         -285.49081923 Eh           -7768.60014 eV

---------------
SCF CONVERGENCE
---------------

  Last Energy change         ...   -5.3036e-09  Tolerance :   1.0000e-08
  Last MAX-Density change    ...    2.2204e-15  Tolerance :   1.0000e-07
  Last RMS-Density change    ...    5.1562e-17  Tolerance :   5.0000e-09
  Last Orbital Gradient      ...    1.1973e-06  Tolerance :   1.0000e-05
  Last Orbital Rotation      ...    3.2575e-06  Tolerance :   1.0000e-05

             **** THE GBW FILE WAS UPDATED (template_ts_guess_orca_constrained_opt.gbw) ****
             **** DENSITY FILE WAS UPDATED (template_ts_guess_orca_constrained_opt.scfp.tmp) ****
             **** ENERGY FILE WAS UPDATED (template_ts_guess_orca_constrained_opt.en.tmp) ****
----------------
ORBITAL ENERGIES
----------------

  NO   OCC          E(Eh)            E(eV) 
   0   2.0000     -19.115598      -520.1619 
   1   2.0000     -14.353249      -390.5718 
   2   2.0000     -10.312530      -280.6182 
   3   2.0000     -10.227531      -278.3053 
   4   2.0000     -10.214400      -277.9480 
   5   2.0000     -10.213663      -277.9279 
   6   2.0000      -0.926419       -25.2091 
   7   2.0000      -0.883471       -24.0405 
   8   2.0000      -0.751694       -20.4546 
   9   2.0000      -0.683657       -18.6033 
  10   2.0000      -0.532120       -14.4797 
  11   2.0000      -0.465005       -12.6534 
  12   2.0000      -0.433063       -11.7842 
  13   2.0000      -0.414795       -11.2871 
  14   2.0000      -0.392301       -10.6751 
  15   2.0000      -0.388002       -10.5581 
  16   2.0000      -0.352990        -9.6054 
  17   2.0000      -0.338080        -9.1996 
  18   2.0000      -0.327780        -8.9193 
  19   2.0000      -0.326584        -8.8868 
  20   2.0000      -0.324340        -8.8257 
  21   2.0000      -0.228719        -6.2238 
  22   2.0000      -0.207361        -5.6426 
  23   0.0000       0.007588         0.2065 
  24   0.0000       0.071950         1.9579 
  25   0.0000       0.073058         1.9880 
  26   0.0000       0.093460         2.5432 
  27   0.0000       0.130306         3.5458 
  28   0.0000       0.151650         4.1266 
  29   0.0000       0.169295         4.6067 
  30   0.0000       0.176068         4.7911 
  31   0.0000       0.198244         5.3945 
  32   0.0000       0.232954         6.3390 
  33   0.0000       0.289675         7.8824 
  34   0.0000       0.298039         8.1100 
  35   0.0000       0.310899         8.4600 
  36   0.0000       0.440224        11.9791 
  37   0.0000       0.480373        13.0716 
  38   0.0000       0.483925        13.1683 
  39   0.0000       0.491601        13.3771 
  40   0.0000       0.548016        14.9123 
  41   0.0000       0.588552        16.0153 
  42   0.0000       0.612061        16.6550 
  43   0.0000       0.619864        16.8674 
  44   0.0000       0.647254        17.6127 
  45   0.0000       0.667754        18.1705 
  46   0.0000       0.674559        18.3557 
  47   0.0000       0.690384        18.7863 
  48   0.0000       0.699352        19.0303 
  49   0.0000       0.709206        19.2985 
  50   0.0000       0.710370        19.3302 
  51   0.0000       0.722337        19.6558 
  52   0.0000       0.725594        19.7444 
  53   0.0000       0.742447        20.2030 
  54   0.0000       0.773033        21.0353 
  55   0.0000       0.852415        23.1954 
  56   0.0000       0.890980        24.2448 
  57   0.0000       0.911869        24.8132 
  58   0.0000       0.926257        25.2047 
  59   0.0000       0.951076        25.8801 
  60   0.0000       0.961080        26.1523 
  61   0.0000       1.080794        29.4099 
  62   0.0000       1.115422        30.3522 
  63   0.0000       1.157289        31.4914 
  64   0.0000       1.196502        32.5585 
  65   0.0000       1.292162        35.1615 
  66   0.0000       1.304750        35.5040 
  67   0.0000       1.428935        38.8833 
  68   0.0000       1.478745        40.2387 
  69   0.0000       1.554374        42.2967 
  70   0.0000       1.580267        43.0013 
  71   0.0000       1.586813        43.1794 
  72   0.0000       1.601778        43.5866 
  73   0.0000       1.659102        45.1465 
  74   0.0000       1.675226        45.5852 
  75   0.0000       1.677326        45.6424 
  76   0.0000       1.701375        46.2968 
  77   0.0000       1.733953        47.1833 
  78   0.0000       1.771423        48.2029 
  79   0.0000       1.786889        48.6237 
  80   0.0000       1.827061        49.7169 
  81   0.0000       1.831180        49.8289 
  82   0.0000       1.845051        50.2064 
  83   0.0000       1.870380        50.8956 
  84   0.0000       1.904556        51.8256 
  85   0.0000       1.983858        53.9835 
  86   0.0000       2.034215        55.3538 
  87   0.0000       2.091468        56.9117 
  88   0.0000       2.147737        58.4429 
  89   0.0000       2.190121        59.5962 
  90   0.0000       2.227609        60.6163 
  91   0.0000       2.304993        62.7221 
  92   0.0000       2.306057        62.7510 
  93   0.0000       2.376435        64.6661 
  94   0.0000       2.436569        66.3024 
  95   0.0000       2.474257        67.3280 
  96   0.0000       2.477640        67.4200 
  97   0.0000       2.549310        69.3703 
  98   0.0000       2.593337        70.5683 
  99   0.0000       2.636541        71.7439 
 100   0.0000       2.747680        74.7682 
 101   0.0000       2.762388        75.1684 
 102   0.0000       2.777689        75.5848 
 103   0.0000       2.874252        78.2124 
 104   0.0000       2.896790        78.8257 
 105   0.0000       2.902114        78.9705 
 106   0.0000       2.911920        79.2374 
 107   0.0000       2.932144        79.7877 
 108   0.0000       2.966432        80.7207 
 109   0.0000       3.032298        82.5130 
 110   0.0000       3.082859        83.8888 
 111   0.0000       3.152755        85.7908 
 112   0.0000       3.348455        91.1161 
 113   0.0000       3.505892        95.4002 

                    ********************************
                    * MULLIKEN POPULATION ANALYSIS *
                    ********************************

-----------------------
MULLIKEN ATOMIC CHARGES
-----------------------
   0 C :   -0.054411
   1 C :    0.027097
   2 O :   -0.691549
   3 C :   -0.287020
   4 N :   -0.245406
   5 C :   -0.059196
   6 H :    0.054341
   7 H :    0.053263
   8 H :    0.049768
   9 H :    0.038544
  10 H :    0.063179
  11 H :    0.051390
Sum of atomic charges:   -1.0000000

--------------------------------
MULLIKEN REDUCED ORBITAL CHARGES
--------------------------------
  0 C s       :     3.026006  s :     3.026006
      pz      :     1.014425  p :     3.003315
      px      :     0.981095
      py      :     1.007795
      dz2     :     0.002920  d :     0.025090
      dxz     :     0.005395
      dyz     :     0.007171
      dx2y2   :     0.004371
      dxy     :     0.005234
  1 C s       :     3.249532  s :     3.249532
      pz      :     0.822357  p :     2.644069
      px      :     0.992016
      py      :     0.829695
      dz2     :     0.020436  d :     0.079302
      dxz     :     0.021917
      dyz     :     0.017845
      dx2y2   :     0.008578
      dxy     :     0.010525
  2 O s       :     3.846204  s :     3.846204
      pz      :     1.305146  p :     4.836145
      px      :     1.859047
      py      :     1.671952
      dz2     :     0.005026  d :     0.009200
      dxz     :     0.001919
      dyz     :     0.002120
      dx2y2   :     0.000057
      dxy     :     0.000078
  3 C s       :     3.471524  s :     3.471524
      pz      :     0.873252  p :     2.772277
      px      :     0.869806
      py      :     1.029219
      dz2     :     0.005868  d :     0.043219
      dxz     :     0.003063
      dyz     :     0.011978
      dx2y2   :     0.010607
      dxy     :     0.011703
  4 N s       :     3.618575  s :     3.618575
      pz      :     1.153463  p :     3.598771
      px      :     1.151849
      py      :     1.293459
      dz2     :     0.003803  d :     0.028059
      dxz     :     0.001860
      dyz     :     0.007579
      dx2y2   :     0.007330
      dxy     :     0.007488
  5 C s       :     3.044609  s :     3.044609
      pz      :     1.021241  p :     2.988728
      px      :     1.008376
      py      :     0.959111
      dz2     :     0.005637  d :     0.025859
      dxz     :     0.002237
      dyz     :     0.006754
      dx2y2   :     0.005794
      dxy     :     0.005438
  6 H s       :     0.921911  s :     0.921911
      pz      :     0.010395  p :     0.023749
      px      :     0.006794
      py      :     0.006559
  7 H s       :     0.922596  s :     0.922596
      pz      :     0.010356  p :     0.024141
      px      :     0.004446
      py      :     0.009339
  8 H s       :     0.925841  s :     0.925841
      pz      :     0.006741  p :     0.024391
      px      :     0.006348
      py      :     0.011302
  9 H s       :     0.937900  s :     0.937900
      pz      :     0.012439  p :     0.023557
      px      :     0.005396
      py      :     0.005721
 10 H s       :     0.913319  s :     0.913319
      pz      :     0.009744  p :     0.023502
      px      :     0.004742
      py      :     0.009016
 11 H s       :     0.924295  s :     0.924295
      pz      :     0.005148  p :     0.024315
      px      :     0.014007
      py      :     0.005161


                     *******************************
                     * LOEWDIN POPULATION ANALYSIS *
                     *******************************

----------------------
LOEWDIN ATOMIC CHARGES
----------------------
   0 C :   -0.096094
   1 C :    0.072532
   2 O :   -0.606271
   3 C :   -0.229917
   4 N :   -0.252368
   5 C :   -0.095649
   6 H :    0.038603
   7 H :    0.035323
   8 H :    0.032683
   9 H :    0.028749
  10 H :    0.044695
  11 H :    0.027713

-------------------------------
LOEWDIN REDUCED ORBITAL CHARGES
-------------------------------
  0 C s       :     2.867241  s :     2.867241
      pz      :     1.064082  p :     3.161562
      px      :     1.036023
      py      :     1.061457
      dz2     :     0.006911  d :     0.067291
      dxz     :     0.015371
      dyz     :     0.019561
      dx2y2   :     0.012126
      dxy     :     0.013321
  1 C s       :     2.937015  s :     2.937015
      pz      :     0.932073  p :     2.821683
      px      :     1.037122
      py      :     0.852488
      dz2     :     0.046668  d :     0.168770
      dxz     :     0.046518
      dyz     :     0.033413
      dx2y2   :     0.017672
      dxy     :     0.024499
  2 O s       :     3.658712  s :     3.658712
      pz      :     1.391430  p :     4.931282
      px      :     1.850932
      py      :     1.688920
      dz2     :     0.010316  d :     0.016277
      dxz     :     0.003065
      dyz     :     0.002727
      dx2y2   :     0.000075
      dxy     :     0.000094
  3 C s       :     3.213959  s :     3.213959
      pz      :     0.893144  p :     2.926451
      px      :     0.885233
      py      :     1.148074
      dz2     :     0.011543  d :     0.089507
      dxz     :     0.005799
      dyz     :     0.025057
      dx2y2   :     0.023560
      dxy     :     0.023548
  4 N s       :     3.443059  s :     3.443059
      pz      :     1.164312  p :     3.762518
      px      :     1.159834
      py      :     1.438372
      dz2     :     0.006088  d :     0.046790
      dxz     :     0.002819
      dyz     :     0.012648
      dx2y2   :     0.013015
      dxy     :     0.012220
  5 C s       :     2.871649  s :     2.871649
      pz      :     1.064657  p :     3.154918
      px      :     1.054549
      py      :     1.035711
      dz2     :     0.014997  d :     0.069082
      dxz     :     0.005256
      dyz     :     0.018150
      dx2y2   :     0.014541
      dxy     :     0.016138
  6 H s       :     0.894232  s :     0.894232
      pz      :     0.028048  p :     0.067165
      px      :     0.021251
      py      :     0.017866
  7 H s       :     0.899328  s :     0.899328
      pz      :     0.028301  p :     0.065349
      px      :     0.011883
      py      :     0.025165
  8 H s       :     0.898663  s :     0.898663
      pz      :     0.017893  p :     0.068654
      px      :     0.019635
      py      :     0.031126
  9 H s       :     0.907038  s :     0.907038
      pz      :     0.034771  p :     0.064213
      px      :     0.013437
      py      :     0.016004
 10 H s       :     0.890418  s :     0.890418
      pz      :     0.025983  p :     0.064887
      px      :     0.012515
      py      :     0.026389
 11 H s       :     0.902906  s :     0.902906
      pz      :     0.013432  p :     0.069381
      px      :     0.040944
      py      :     0.015006


                      *****************************
                      * MAYER POPULATION ANALYSIS *
                      *****************************

  NA   - Mulliken gross atomic population
  ZA   - Total nuclear charge
  QA   - Mulliken gross atomic charge
  VA   - Mayer's total valence
  BVA  - Mayer's bonded valence
  FA   - Mayer's free valence

  ATOM       NA         ZA         QA         VA         BVA        FA
  0 C      6.0544     6.0000    -0.0544     3.8168     3.8168    -0.0000
  1 C      5.9729     6.0000     0.0271     4.1882     4.1882    -0.0000
  2 O      8.6915     8.0000    -0.6915     1.7190     1.7190     0.0000
  3 C      6.2870     6.0000    -0.2870     3.6671     3.6671    -0.0000
  4 N      7.2454     7.0000    -0.2454     3.1075     3.1075    -0.0000
  5 C      6.0592     6.0000    -0.0592     3.8396     3.8396    -0.0000
  6 H      0.9457     1.0000     0.0543     1.0254     1.0254    -0.0000
  7 H      0.9467     1.0000     0.0533     0.9892     0.9892     0.0000
  8 H      0.9502     1.0000     0.0498     0.9999     0.9999    -0.0000
  9 H      0.9615     1.0000     0.0385     0.9892     0.9892    -0.0000
 10 H      0.9368     1.0000     0.0632     1.0162     1.0162     0.0000
 11 H      0.9486     1.0000     0.0514     0.9985     0.9985    -0.0000

  Mayer bond orders larger than 0.1
B(  0-C ,  1-C ) :   1.0170 B(  0-C ,  6-H ) :   0.9566 B(  0-C ,  7-H ) :   0.9628 
B(  0-C ,  8-H ) :   0.9541 B(  1-C ,  2-O ) :   1.5413 B(  1-C ,  3-C ) :   0.5166 
B(  1-C ,  5-C ) :   1.0221 B(  3-C ,  4-N ) :   3.0538 B(  5-C ,  9-H ) :   0.9605 
B(  5-C , 10-H ) :   0.9581 B(  5-C , 11-H ) :   0.9602 

-------
TIMINGS
-------

Total SCF time: 0 days 0 hours 0 min 7 sec 

Total time                  ....       7.663 sec
Sum of individual times     ....       7.487 sec  ( 97.7%)

Fock matrix formation       ....       6.963 sec  ( 90.9%)
  Split-RI-J                ....       1.680 sec  ( 24.1% of F)
  Chain of spheres X        ....       1.853 sec  ( 26.6% of F)
  COS-X 1 center corr.      ....       0.000 sec  (  0.0% of F)
  XC integration            ....       0.330 sec  (  4.7% of F)
    Basis function eval.    ....       0.086 sec  ( 26.1% of XC)
    Density eval.           ....       0.035 sec  ( 10.7% of XC)
    XC-Functional eval.     ....       0.020 sec  (  6.1% of XC)
    XC-Potential eval.      ....       0.051 sec  ( 15.5% of XC)
Diagonalization             ....       0.009 sec  (  0.1%)
Density matrix formation    ....       0.002 sec  (  0.0%)
Population analysis         ....       0.003 sec  (  0.0%)
Initial guess               ....       0.123 sec  (  1.6%)
Orbital Transformation      ....       0.000 sec  (  0.0%)
Orbital Orthonormalization  ....       0.000 sec  (  0.0%)
DIIS solution               ....       0.003 sec  (  0.0%)
SOSCF solution              ....       0.006 sec  (  0.1%)
Grid generation             ....       0.377 sec  (  4.9%)


-------------------------------------------------------------------------------
                          DFT DISPERSION CORRECTION                            
                                                                               
                              DFTD3 V3.1  Rev 1                                
                          USING Becke-Johnson damping                          
-------------------------------------------------------------------------------
The PBE0 functional is recognized
Active option DFTDOPT                   ...         4   

molecular C6(AA) [au] = 1464.209076 


            DFT-D V3
 parameters
 s6 scaling factor         :     1.0000 
 a1 scaling factor         :     0.4145 
 s8 scaling factor         :     1.2177 
 a2 scaling factor         :     4.8593 
 ad hoc parameters k1-k3   :    16.0000     1.3333    -4.0000 

 Edisp/kcal,au: -4.997162986310  -0.007963485270 
 E6   /kcal   :  -3.187563846 
 E8   /kcal   :  -1.809599140 
 % E8         :  36.212529891 

-------------------------   ----------------
Dispersion correction           -0.007963485
-------------------------   ----------------


-------------------------   --------------------
FINAL SINGLE POINT ENERGY      -285.497333558782
-------------------------   --------------------



           ************************************************************
           *        Program running with 8 parallel MPI-processes     *
           *              working on a common directory               *
           ************************************************************
------------------------------------------------------------------------------
                         ORCA SCF GRADIENT CALCULATION
------------------------------------------------------------------------------

Gradient of the Kohn-Sham DFT energy:
Kohn-Sham wavefunction type      ... RKS
Hartree-Fock exchange scaling    ...    0.250
Number of operators              ...    1
Number of atoms                  ...   12
Basis set dimensions             ...  114
Integral neglect threshold       ... 2.5e-11
Integral primitive cutoff        ... 2.5e-12

Nuclear repulsion gradient       ... done
One Electron Gradient            ... done
Pre-screening matrix             ... done
RI-J gradient                    ... done
COSX-gradient                    ... done
Exchange-correlation gradient    ... done
Dispersion correction            ... done

------------------
CARTESIAN GRADIENT
------------------

   1   C   :   -0.008755157   -0.009972976   -0.020733843
   2   C   :   -0.013334085    0.032280753    0.108860538
   3   O   :    0.012131919   -0.028498586   -0.077658327
   4   C   :   -0.020371898    0.061248412    0.012490563
   5   N   :    0.008653438   -0.023886207   -0.006411691
   6   C   :    0.002160558    0.006887827   -0.021832868
   7   H   :    0.001729558   -0.008558024   -0.004303327
   8   H   :   -0.002412262   -0.011156956    0.006152021
   9   H   :   -0.008019339    0.001063275    0.001760313
  10   H   :    0.017380179   -0.007003788    0.010693032
  11   H   :    0.001701184   -0.012247349   -0.008240554
  12   H   :    0.007896555    0.000345532   -0.001095741

Difference to translation invariance:
           :   -0.0012393497    0.0005019116   -0.0003198825

Norm of the cartesian gradient     ...    0.1651839280
RMS gradient                       ...    0.0275306547
MAX gradient                       ...    0.1088605378

-------
TIMINGS
-------

Total SCF gradient time            ...        1.234 sec

One electron gradient       ....       0.010 sec  (  0.8%)
Prescreening matrices       ....       0.011 sec  (  0.9%)
RI-J Coulomb gradient       ....       0.166 sec  ( 13.5%)
COSX gradient               ....       0.316 sec  ( 25.6%)
XC gradient                 ....       0.176 sec  ( 14.2%)
CPCM gradient               ....       0.144 sec  ( 11.7%)
   A-Matrix (El+Nuc)        ....       0.008 sec  (  0.6%)
   Potential                ....       0.136 sec  ( 11.0%)
------------------------------------------------------------------------------
                         ORCA GEOMETRY RELAXATION STEP
------------------------------------------------------------------------------

Reading the OPT-File                    .... done
Getting information on internals        .... done
Copying old internal coords+grads       .... done
Making the new internal coordinates     .... (new redundants).... done
Validating the new internal coordinates .... (new redundants).... done
Calculating the B-matrix                .... done
Calculating the G,G- and P matrices     .... done
Transforming gradient to internals      .... done
Projecting the internal gradient        .... done
Number of atoms                         ....  12
Number of internal coordinates          ....  49
Current Energy                          ....  -285.497333559 Eh
Current gradient norm                   ....     0.165183928 Eh/bohr
Maximum allowed component of the step   ....  0.300
Current trust radius                    ....  0.300
Evaluating the initial hessian          ....  (Almloef) done
Projecting the Hessian                  .... done
Forming the augmented Hessian           .... done
Diagonalizing the augmented Hessian     .... done
Last element of RFO vector              ....  0.910774847
Lowest eigenvalues of augmented Hessian:
 -0.041714657  0.012172102  0.012998813  0.085793159  0.099339871
Length of the computed step             ....  0.453353926
Warning: the length of the step is outside the trust region - taking restricted step instead
The input lambda is                     ....    -0.041715
   iter:   1  x=   -0.082550  g=    2.829178 f(x)=     0.115530
   iter:   2  x=   -0.114656  g=    1.231263 f(x)=     0.039531
   iter:   3  x=   -0.125557  g=    0.765147 f(x)=     0.008341
   iter:   4  x=   -0.126410  g=    0.664530 f(x)=     0.000567
   iter:   5  x=   -0.126415  g=    0.657473 f(x)=     0.000003
   iter:   6  x=   -0.126415  g=    0.657436 f(x)=     0.000000
   iter:   7  x=   -0.126415  g=    0.657436 f(x)=    -0.000000
The output lambda is                    ....    -0.126415 (7 iterations)
The final length of the internal step   ....  0.300000000
Converting the step to cartesian space:
 Initial RMS(Int)=    0.0428571429
Transforming coordinates:
 Iter   0:  RMS(Cart)=    0.0979972219 RMS(Int)=    0.0439340323
 Iter   1:  RMS(Cart)=    0.0045724794 RMS(Int)=    0.0027257680
 Iter   2:  RMS(Cart)=    0.0002665630 RMS(Int)=    0.0001728399
 Iter   3:  RMS(Cart)=    0.0000294785 RMS(Int)=    0.0000277447
 Iter   4:  RMS(Cart)=    0.0000121342 RMS(Int)=    0.0000128435
 Iter   5:  RMS(Cart)=    0.0000064738 RMS(Int)=    0.0000067318
 Iter   6:  RMS(Cart)=    0.0000034099 RMS(Int)=    0.0000035376
 Iter   7:  RMS(Cart)=    0.0000017911 RMS(Int)=    0.0000018590
 Iter   8:  RMS(Cart)=    0.0000009411 RMS(Int)=    0.0000009769
 Iter   9:  RMS(Cart)=    0.0000004946 RMS(Int)=    0.0000005133
 Iter  10:  RMS(Cart)=    0.0000002599 RMS(Int)=    0.0000002698
 Iter  11:  RMS(Cart)=    0.0000001366 RMS(Int)=    0.0000001418
 Iter  12:  RMS(Cart)=    0.0000000718 RMS(Int)=    0.0000000745
Imposing constraints:
 Iter   0:  RMS(Cart)=    0.0000000003 RMS(Int)=    0.0000000000
CONVERGED
done
Storing new coordinates                 .... done

                                .--------------------.
          ----------------------|Geometry convergence|-------------------------
          Item                value                   Tolerance       Converged
          ---------------------------------------------------------------------
          RMS gradient        0.0164583765            0.0001000000      NO
          MAX gradient        0.0775590124            0.0003000000      NO
          RMS step            0.0428571429            0.0020000000      NO
          MAX step            0.1148613762            0.0040000000      NO
          ........................................................
          Max(Bonds)      0.0608      Max(Angles)    6.19
          Max(Dihed)        4.47      Max(Improp)    0.00
          ---------------------------------------------------------------------

The optimization has not yet converged - more geometry cycles are needed


    ---------------------------------------------------------------------------
                         Redundant Internal Coordinates
                            (Angstroem and degrees)

        Definition                    Value    dE/dq     Step     New-Value
    ----------------------------------------------------------------------------
     1. B(C   1,C   0)                1.5177 -0.015074  0.0154    1.5331   
     2. B(O   2,C   1)                1.3953  0.077559 -0.0608    1.3345   
     3. B(C   3,C   1)                2.0612  0.038772 -0.0000    2.0612 C 
     4. B(N   4,C   3)                1.1571 -0.026073  0.0096    1.1667   
     5. B(C   5,C   1)                1.5135 -0.015136  0.0153    1.5288   
     6. B(H   6,C   0)                1.1084  0.007912 -0.0090    1.0994   
     7. B(H   7,C   0)                1.1183  0.012205 -0.0143    1.1040   
     8. B(H   8,C   0)                1.0988 -0.002093  0.0023    1.1011   
     9. B(H   9,C   5)                1.1270  0.016782 -0.0201    1.1068   
    10. B(H  10,C   5)                1.1209  0.014824 -0.0175    1.1034   
    11. B(H  11,C   5)                1.0898 -0.007617  0.0083    1.0980   
    12. A(C   1,C   0,H   7)          111.44 -0.001633    0.35    111.79   
    13. A(C   1,C   0,H   6)          107.06  0.001348   -0.21    106.85   
    14. A(H   6,C   0,H   8)          112.63  0.006283   -1.13    111.50   
    15. A(H   7,C   0,H   8)          107.52  0.003812   -0.41    107.11   
    16. A(C   1,C   0,H   8)          111.53 -0.007512    0.90    112.43   
    17. A(H   6,C   0,H   7)          106.61 -0.002109    0.49    107.10   
    18. A(O   2,C   1,C   3)          110.87  0.001087   -1.70    109.16   
    19. A(C   0,C   1,C   3)          110.06  0.018841   -3.59    106.47   
    20. A(C   3,C   1,C   5)          110.71  0.023522   -4.30    106.40   
    21. A(C   0,C   1,O   2)          110.51  0.001870    1.41    111.92   
    22. A(O   2,C   1,C   5)          107.72 -0.003741    2.38    110.11   
    23. A(C   0,C   1,C   5)          106.86 -0.043419    6.19    113.06   
    24. L(C   1,C   3,N   4,C   5, 1) 180.33 -0.002663    0.34    180.67   
    25. L(C   1,C   3,N   4,C   5, 2) 182.23 -0.001460    0.19    182.42   
    26. A(C   1,C   5,H   9)          108.61 -0.013980    1.88    110.49   
    27. A(C   1,C   5,H  10)          105.92  0.003523   -0.39    105.53   
    28. A(H   9,C   5,H  10)          105.71 -0.000268    0.43    106.14   
    29. A(C   1,C   5,H  11)          113.99  0.000214   -0.15    113.84   
    30. A(H   9,C   5,H  11)          112.97  0.010020   -1.49    111.48   
    31. A(H  10,C   5,H  11)          109.08  0.000204   -0.20    108.88   
    32. D(O   2,C   1,C   0,H   7)   -136.31  0.015780   -4.02   -140.32   
    33. D(C   5,C   1,C   0,H   7)    -19.37 -0.012600    3.12    -16.24   
    34. D(C   3,C   1,C   0,H   7)    100.90  0.000325   -0.37    100.53   
    35. D(O   2,C   1,C   0,H   6)    -20.10  0.013168   -3.36    -23.46   
    36. D(C   5,C   1,C   0,H   8)   -139.53 -0.011204    2.79   -136.74   
    37. D(C   3,C   1,C   0,H   8)    -19.26  0.001721   -0.71    -19.97   
    38. D(C   3,C   1,C   0,H   6)   -142.89 -0.002286    0.28   -142.60   
    39. D(C   5,C   1,C   0,H   6)     96.84 -0.015211    3.78    100.62   
    40. D(O   2,C   1,C   0,H   8)    103.53  0.017175   -4.35     99.18   
    41. D(H  10,C   5,C   1,C   3)    157.31  0.001869    0.13    157.44   
    42. D(H   9,C   5,C   1,O   2)    149.08 -0.016245    4.47    153.55   
    43. D(H   9,C   5,C   1,C   3)    -89.54 -0.003068    1.29    -88.25   
    44. D(H  10,C   5,C   1,C   0)    -82.83  0.011509   -2.87    -85.71   
    45. D(H   9,C   5,C   1,C   0)     30.32  0.006572   -1.71     28.60   
    46. D(H  10,C   5,C   1,O   2)     35.94 -0.011308    3.31     39.24   
    47. D(H  11,C   5,C   1,C   0)    157.23  0.008742   -2.28    154.95   
    48. D(H  11,C   5,C   1,O   2)    -84.00 -0.014075    3.90    -80.10   
    49. D(H  11,C   5,C   1,C   3)     37.37 -0.000898    0.73     38.10   
    ----------------------------------------------------------------------------

         *************************************************************
         *                GEOMETRY OPTIMIZATION CYCLE   2            *
         *************************************************************
---------------------------------
CARTESIAN COORDINATES (ANGSTROEM)
---------------------------------
  C      1.366952   -0.132858    0.196229
  C      0.001388    0.141286   -0.444564
  O      0.092965    0.232231   -1.772818
  C     -0.655008    1.941801    0.314198
  N     -1.026789    2.971475    0.717466
  C     -1.052813   -0.900068   -0.068292
  H      1.993558   -0.600211   -0.576771
  H      1.291030   -0.851532    1.030851
  H      1.833968    0.780363    0.596648
  H     -0.833752   -1.330915    0.927441
  H     -0.927114   -1.722754   -0.792767
  H     -2.084487   -0.528816   -0.127721

----------------------------
CARTESIAN COORDINATES (A.U.)
----------------------------
  NO LB      ZA    FRAG     MASS         X           Y           Z
   0 C     6.0000    0    12.011    2.583165   -0.251065    0.370819
   1 C     6.0000    0    12.011    0.002624    0.266991   -0.840105
   2 O     8.0000    0    15.999    0.175679    0.438852   -3.350140
   3 C     6.0000    0    12.011   -1.237787    3.669472    0.593749
   4 N     7.0000    0    14.007   -1.940350    5.615274    1.355815
   5 C     6.0000    0    12.011   -1.989528   -1.700882   -0.129054
   6 H     1.0000    0     1.008    3.767279   -1.134235   -1.089940
   7 H     1.0000    0     1.008    2.439693   -1.609163    1.948025
   8 H     1.0000    0     1.008    3.465698    1.474672    1.127501
   9 H     1.0000    0     1.008   -1.575562   -2.515065    1.752610
  10 H     1.0000    0     1.008   -1.751991   -3.255533   -1.498112
  11 H     1.0000    0     1.008   -3.939109   -0.999317   -0.241358

--------------------------------
INTERNAL COORDINATES (ANGSTROEM)
--------------------------------
 C      0   0   0     0.000000000000     0.00000000     0.00000000
 C      1   0   0     1.533145368685     0.00000000     0.00000000
 O      2   1   0     1.334508861552   111.53472118     0.00000000
 C      2   1   3     2.061172494831   106.61786726   240.88507907
 N      4   2   1     1.166651036669   178.61254998   119.09109709
 C      2   1   3     1.528835718888   112.92406778   124.20987052
 H      1   2   3     1.099356092418   106.84630988   336.48797623
 H      1   2   3     1.104015354841   111.78471836   219.62526290
 H      1   2   3     1.101095933576   112.42467890    99.12074986
 H      6   2   1     1.106843551394   110.49211534    28.49197596
 H      6   2   1     1.103392718403   105.52782411   274.17700892
 H      6   2   1     1.098048688989   113.84400193   154.83749318

---------------------------
INTERNAL COORDINATES (A.U.)
---------------------------
 C      0   0   0     0.000000000000     0.00000000     0.00000000
 C      1   0   0     2.897224870304     0.00000000     0.00000000
 O      2   1   0     2.521856271624   111.53472118     0.00000000
 C      2   1   3     3.895051530002   106.61786726   240.88507907
 N      4   2   1     2.204650953160   178.61254998   119.09109709
 C      2   1   3     2.889080812454   112.92406778   124.20987052
 H      1   2   3     2.077481938328   106.84630988   336.48797623
 H      1   2   3     2.086286668293   111.78471836   219.62526290
 H      1   2   3     2.080769761632   112.42467890    99.12074986
 H      6   2   1     2.091631185231   110.49211534    28.49197596
 H      6   2   1     2.085110055945   105.52782411   274.17700892
 H      6   2   1     2.075011303900   113.84400193   154.83749318



           ************************************************************
           *        Program running with 8 parallel MPI-processes     *
           *              working on a common directory               *
           ************************************************************
 One Electron integrals                  ... done
 Pre-screening matrix                    ... done


           ************************************************************
           *        Program running with 8 parallel MPI-processes     *
           *              working on a common directory               *
           ************************************************************

Diagonalization of the overlap matrix:
Smallest eigenvalue                        ... 1.709e-03
Time for diagonalization                   ...    0.002 sec
Threshold for overlap eigenvalues          ... 1.000e-08
Number of eigenvalues below threshold      ... 0
Time for construction of square roots      ...    0.001 sec
Total time needed                          ...    0.003 sec

-------------------
DFT GRID GENERATION
-------------------

General Integration Accuracy     IntAcc      ...  4.340
Radial Grid Type                 RadialGrid  ... Gauss-Chebyshev
Angular Grid (max. acc.)         AngularGrid ... Lebedev-110
Angular grid pruning method      GridPruning ... 3 (G Style)
Weight generation scheme         WeightScheme... Becke
Basis function cutoff            BFCut       ...    1.0000e-11
Integration weight cutoff        WCut        ...    1.0000e-14
Grids for H and He will be reduced by one unit

# of grid points (after initial pruning)     ...  14806 (   0.0 sec)
# of grid points (after weights+screening)   ...  13971 (   0.0 sec)
nearest neighbour list constructed           ...    0.0 sec
Grid point re-assignment to atoms done       ...    0.0 sec
Grid point division into batches done        ...    0.0 sec
Reduced shell lists constructed in    0.0 sec

Total number of grid points                  ...    13971
Total number of batches                      ...      227
Average number of points per batch           ...       61
Average number of grid points per atom       ...     1164
Average number of shells per batch           ...    47.93 (88.77%)
Average number of basis functions per batch  ...   102.80 (90.18%)
Average number of large shells per batch     ...    42.97 (89.64%)
Average number of large basis fcns per batch ...    90.17 (87.71%)
Maximum spatial batch extension              ...   2.72,  3.21,  3.06 au
Average spatial batch extension              ...   0.20,  0.21,  0.20 au

Time for grid setup =    0.036 sec

--------------------
COSX GRID GENERATION
--------------------

General Integration Accuracy     IntAcc      ...  3.340
Radial Grid Type                 RadialGrid  ... Gauss-Chebyshev
Angular Grid (max. acc.)         AngularGrid ... Lebedev-50
Angular grid pruning method      GridPruning ... 3 (G Style)
Weight generation scheme         WeightScheme... Becke
Basis function cutoff            BFCut       ...    1.0000e-11
Integration weight cutoff        WCut        ...    1.0000e-14
Grids for H and He will be reduced by one unit

# of grid points (after initial pruning)     ...   5386 (   0.0 sec)
# of grid points (after weights+screening)   ...   5089 (   0.0 sec)
nearest neighbour list constructed           ...    0.0 sec
Grid point re-assignment to atoms done       ...    0.0 sec
Grid point division into batches done        ...    0.0 sec
Reduced shell lists constructed in    0.0 sec

Total number of grid points                  ...     5089
Total number of batches                      ...       85
Average number of points per batch           ...       59
Average number of grid points per atom       ...      424
Average number of shells per batch           ...    45.92 (85.03%)
Average number of basis functions per batch  ...    98.58 (86.48%)
Average number of large shells per batch     ...    41.75 (90.93%)
Average number of large basis fcns per batch ...    88.42 (89.69%)
Maximum spatial batch extension              ...   2.99,  2.97,  3.40 au
Average spatial batch extension              ...   0.28,  0.26,  0.27 au

Overlap Fitting                  UseSFitting ... on
Constructing numerical overlap ... done (      0.0 sec)
Inverting numerical overlap    ... done (      0.0 sec)
Obtaining analytic overlap     ... done (      0.0 sec)
Final contraction and storage  ... done (      0.0 sec)


General Integration Accuracy     IntAcc      ...  3.670
Radial Grid Type                 RadialGrid  ... Gauss-Chebyshev
Angular Grid (max. acc.)         AngularGrid ... Lebedev-50
Angular grid pruning method      GridPruning ... 3 (G Style)
Weight generation scheme         WeightScheme... Becke
Basis function cutoff            BFCut       ...    1.0000e-11
Integration weight cutoff        WCut        ...    1.0000e-14
Grids for H and He will be reduced by one unit

# of grid points (after initial pruning)     ...   6876 (   0.0 sec)
# of grid points (after weights+screening)   ...   6492 (   0.0 sec)
nearest neighbour list constructed           ...    0.0 sec
Grid point re-assignment to atoms done       ...    0.0 sec
Grid point division into batches done        ...    0.0 sec
Reduced shell lists constructed in    0.0 sec

Total number of grid points                  ...     6492
Total number of batches                      ...      106
Average number of points per batch           ...       61
Average number of grid points per atom       ...      541
Average number of shells per batch           ...    46.80 (86.67%)
Average number of basis functions per batch  ...   100.00 (87.72%)
Average number of large shells per batch     ...    42.07 (89.89%)
Average number of large basis fcns per batch ...    88.33 (88.33%)
Maximum spatial batch extension              ...   2.72,  2.93,  2.61 au
Average spatial batch extension              ...   0.28,  0.26,  0.23 au

Overlap Fitting                  UseSFitting ... on
Constructing numerical overlap ... done (      0.0 sec)
Inverting numerical overlap    ... done (      0.0 sec)
Obtaining analytic overlap     ... done (      0.0 sec)
Final contraction and storage  ... done (      0.0 sec)


General Integration Accuracy     IntAcc      ...  4.010
Radial Grid Type                 RadialGrid  ... Gauss-Chebyshev
Angular Grid (max. acc.)         AngularGrid ... Lebedev-110
Angular grid pruning method      GridPruning ... 3 (G Style)
Weight generation scheme         WeightScheme... Becke
Basis function cutoff            BFCut       ...    1.0000e-11
Integration weight cutoff        WCut        ...    1.0000e-14
Grids for H and He will be reduced by one unit

# of grid points (after initial pruning)     ...  12770 (   0.0 sec)
# of grid points (after weights+screening)   ...  12070 (   0.0 sec)
nearest neighbour list constructed           ...    0.0 sec
Grid point re-assignment to atoms done       ...    0.0 sec
Grid point division into batches done        ...    0.0 sec
Reduced shell lists constructed in    0.0 sec

Total number of grid points                  ...    12070
Total number of batches                      ...      194
Average number of points per batch           ...       62
Average number of grid points per atom       ...     1006
[...]
E(X)               :      -28.270097214774 Eh       
E(C)               :       -1.509206360568 Eh       
E(XC)              :      -29.779303575343 Eh       
DFET-embed. en.    :        0.000000000000 Eh       
CPCM Solvation Model Properties:
Surface-charge          :            0.96918476
Charge-correction       :           -0.00502032 Eh              -0.13661 eV
Free-energy (cav+disp)  :            0.00348749 Eh               0.09490 eV
Corrected G(solv)       :         -285.54191141 Eh           -7769.99043 eV

---------------
SCF CONVERGENCE
---------------

  Last Energy change         ...   -4.3991e-10  Tolerance :   1.0000e-08
  Last MAX-Density change    ...    3.9968e-15  Tolerance :   1.0000e-07
  Last RMS-Density change    ...    6.3042e-17  Tolerance :   5.0000e-09
  Last Orbital Gradient      ...    9.7779e-07  Tolerance :   1.0000e-05
  Last Orbital Rotation      ...    9.7118e-07  Tolerance :   1.0000e-05

             **** THE GBW FILE WAS UPDATED (template_ts_guess_orca_constrained_opt.gbw) ****
             **** DENSITY FILE WAS UPDATED (template_ts_guess_orca_constrained_opt.scfp.tmp) ****
             **** ENERGY FILE WAS UPDATED (template_ts_guess_orca_constrained_opt.en.tmp) ****
----------------
ORBITAL ENERGIES
----------------

  NO   OCC          E(Eh)            E(eV) 
   0   2.0000     -19.139796      -520.8203 
   1   2.0000     -14.333787      -390.0422 
   2   2.0000     -10.307063      -280.4694 
   3   2.0000     -10.210223      -277.8343 
   4   2.0000     -10.210101      -277.8310 
   5   2.0000     -10.197548      -277.4894 
   6   2.0000      -0.999740       -27.2043 
   7   2.0000      -0.857208       -23.3258 
   8   2.0000      -0.752361       -20.4728 
   9   2.0000      -0.693478       -18.8705 
  10   2.0000      -0.524964       -14.2850 
  11   2.0000      -0.468939       -12.7605 
  12   2.0000      -0.440199       -11.9784 
  13   2.0000      -0.435549       -11.8519 
  14   2.0000      -0.387733       -10.5508 
  15   2.0000      -0.377726       -10.2784 
  16   2.0000      -0.371562       -10.1107 
  17   2.0000      -0.358305        -9.7500 
  18   2.0000      -0.336825        -9.1655 
  19   2.0000      -0.304938        -8.2978 
  20   2.0000      -0.300644        -8.1809 
  21   2.0000      -0.243910        -6.6371 
  22   2.0000      -0.229407        -6.2425 
  23   0.0000       0.034704         0.9444 
  24   0.0000       0.084450         2.2980 
  25   0.0000       0.095926         2.6103 
  26   0.0000       0.099285         2.7017 
  27   0.0000       0.146026         3.9736 
  28   0.0000       0.150554         4.0968 
  29   0.0000       0.166063         4.5188 
  30   0.0000       0.177683         4.8350 
  31   0.0000       0.193952         5.2777 
  32   0.0000       0.228481         6.2173 
  33   0.0000       0.293468         7.9857 
  34   0.0000       0.308614         8.3978 
  35   0.0000       0.343418         9.3449 
  36   0.0000       0.429954        11.6997 
  37   0.0000       0.482704        13.1351 
  38   0.0000       0.503025        13.6880 
  39   0.0000       0.526184        14.3182 
  40   0.0000       0.574795        15.6410 
  41   0.0000       0.599982        16.3263 
  42   0.0000       0.626678        17.0528 
  43   0.0000       0.633700        17.2438 
  44   0.0000       0.649674        17.6785 
  45   0.0000       0.665690        18.1144 
  46   0.0000       0.679465        18.4892 
  47   0.0000       0.680986        18.5306 
  48   0.0000       0.690482        18.7890 
  49   0.0000       0.705543        19.1988 
  50   0.0000       0.721990        19.6463 
  51   0.0000       0.737321        20.0635 
  52   0.0000       0.739087        20.1116 
  53   0.0000       0.754632        20.5346 
  54   0.0000       0.776493        21.1295 
  55   0.0000       0.845013        22.9940 
  56   0.0000       0.900722        24.5099 
  57   0.0000       0.918539        24.9947 
  58   0.0000       0.938431        25.5360 
  59   0.0000       0.971872        26.4460 
  60   0.0000       1.030965        28.0540 
  61   0.0000       1.094140        29.7731 
  62   0.0000       1.145661        31.1750 
  63   0.0000       1.155787        31.4506 
  64   0.0000       1.194582        32.5062 
  65   0.0000       1.225335        33.3431 
  66   0.0000       1.365670        37.1618 
  67   0.0000       1.379543        37.5393 
  68   0.0000       1.434787        39.0425 
  69   0.0000       1.552098        42.2347 
  70   0.0000       1.556701        42.3600 
  71   0.0000       1.581761        43.0419 
  72   0.0000       1.609106        43.7860 
  73   0.0000       1.661217        45.2040 
  74   0.0000       1.705877        46.4193 
  75   0.0000       1.718149        46.7532 
  76   0.0000       1.718677        46.7676 
  77   0.0000       1.754920        47.7538 
  78   0.0000       1.800583        48.9964 
  79   0.0000       1.810673        49.2709 
  80   0.0000       1.830284        49.8046 
  81   0.0000       1.833770        49.8994 
  82   0.0000       1.914610        52.0992 
  83   0.0000       1.920250        52.2527 
  84   0.0000       1.949348        53.0445 
  85   0.0000       1.964333        53.4522 
  86   0.0000       2.059762        56.0490 
  87   0.0000       2.105691        57.2988 
  88   0.0000       2.153750        58.6065 
  89   0.0000       2.205001        60.0011 
  90   0.0000       2.244049        61.0637 
  91   0.0000       2.320976        63.1570 
  92   0.0000       2.324406        63.2503 
  93   0.0000       2.385600        64.9155 
  94   0.0000       2.420373        65.8617 
  95   0.0000       2.466638        67.1206 
  96   0.0000       2.544349        69.2353 
  97   0.0000       2.559702        69.6530 
  98   0.0000       2.576822        70.1189 
  99   0.0000       2.678328        72.8810 
 100   0.0000       2.725493        74.1644 
 101   0.0000       2.734623        74.4129 
 102   0.0000       2.807167        76.3869 
 103   0.0000       2.828623        76.9707 
 104   0.0000       2.904783        79.0432 
 105   0.0000       2.930684        79.7480 
 106   0.0000       2.958044        80.4925 
 107   0.0000       2.972199        80.8776 
 108   0.0000       2.995883        81.5221 
 109   0.0000       2.997463        81.5651 
 110   0.0000       3.225614        87.7734 
 111   0.0000       3.347637        91.0938 
 112   0.0000       3.351089        91.1878 
 113   0.0000       3.644911        99.1831 

                    ********************************
                    * MULLIKEN POPULATION ANALYSIS *
                    ********************************

-----------------------
MULLIKEN ATOMIC CHARGES
-----------------------
   0 C :   -0.027179
   1 C :   -0.028105
   2 O :   -0.509993
   3 C :   -0.368444
   4 N :   -0.312942
   5 C :   -0.015464
   6 H :    0.049513
   7 H :    0.041948
   8 H :    0.044096
   9 H :    0.039710
  10 H :    0.048063
  11 H :    0.038796
Sum of atomic charges:   -1.0000000

--------------------------------
MULLIKEN REDUCED ORBITAL CHARGES
--------------------------------
  0 C s       :     3.013607  s :     3.013607
      pz      :     0.998565  p :     2.988514
      px      :     0.970244
      py      :     1.019706
      dz2     :     0.007035  d :     0.025057
      dxz     :     0.004041
      dyz     :     0.003191
      dx2y2   :     0.004101
      dxy     :     0.006688
  1 C s       :     3.231788  s :     3.231788
      pz      :     0.861195  p :     2.694202
      px      :     1.002305
      py      :     0.830702
      dz2     :     0.024962  d :     0.102115
      dxz     :     0.029722
      dyz     :     0.024052
      dx2y2   :     0.009985
      dxy     :     0.013394
  2 O s       :     3.769387  s :     3.769387
      pz      :     1.363833  p :     4.726372
      px      :     1.804907
      py      :     1.557631
      dz2     :     0.005978  d :     0.014234
      dxz     :     0.002818
      dyz     :     0.004411
      dx2y2   :     0.000563
      dxy     :     0.000464
  3 C s       :     3.554137  s :     3.554137
      pz      :     0.865272  p :     2.770336
      px      :     0.878357
      py      :     1.026707
      dz2     :     0.005420  d :     0.043970
      dxz     :     0.003668
      dyz     :     0.011296
      dx2y2   :     0.012285
      dxy     :     0.011301
  4 N s       :     3.644006  s :     3.644006
      pz      :     1.175992  p :     3.643105
      px      :     1.179987
      py      :     1.287126
      dz2     :     0.003157  d :     0.025831
      dxz     :     0.002042
      dyz     :     0.006477
      dx2y2   :     0.007171
      dxy     :     0.006984
  5 C s       :     3.012745  s :     3.012745
      pz      :     1.000816  p :     2.977645
      px      :     0.991310
      py      :     0.985519
      dz2     :     0.006676  d :     0.025074
      dxz     :     0.003196
      dyz     :     0.004156
      dx2y2   :     0.005670
      dxy     :     0.005376
  6 H s       :     0.925957  s :     0.925957
      pz      :     0.006642  p :     0.024531
      px      :     0.006340
      py      :     0.011549
  7 H s       :     0.934371  s :     0.934371
      pz      :     0.014635  p :     0.023681
      px      :     0.003977
      py      :     0.005069
  8 H s       :     0.932279  s :     0.932279
      pz      :     0.005063  p :     0.023625
      px      :     0.007660
      py      :     0.010902
  9 H s       :     0.936479  s :     0.936479
      pz      :     0.014834  p :     0.023811
      px      :     0.004385
      py      :     0.004593
 10 H s       :     0.927281  s :     0.927281
      pz      :     0.006972  p :     0.024656
      px      :     0.005228
      py      :     0.012456
 11 H s       :     0.937517  s :     0.937517
      pz      :     0.006112  p :     0.023687
      px      :     0.012076
      py      :     0.005498


                     *******************************
                     * LOEWDIN POPULATION ANALYSIS *
                     *******************************

----------------------
LOEWDIN ATOMIC CHARGES
----------------------
   0 C :   -0.099734
   1 C :    0.038560
   2 O :   -0.427091
   3 C :   -0.293849
   4 N :   -0.311781
   5 C :   -0.096879
   6 H :    0.035231
   7 H :    0.030716
   8 H :    0.030365
   9 H :    0.030272
  10 H :    0.034879
  11 H :    0.029310

-------------------------------
LOEWDIN REDUCED ORBITAL CHARGES
-------------------------------
  0 C s       :     2.863026  s :     2.863026
      pz      :     1.059625  p :     3.168716
      px      :     1.039739
      py      :     1.069352
      dz2     :     0.019290  d :     0.067991
      dxz     :     0.011413
      dyz     :     0.007894
      dx2y2   :     0.011920
      dxy     :     0.017474
  1 C s       :     2.899576  s :     2.899576
      pz      :     0.948422  p :     2.835210
      px      :     1.021143
      py      :     0.865645
      dz2     :     0.055493  d :     0.226654
      dxz     :     0.067985
      dyz     :     0.051536
      dx2y2   :     0.020424
      dxy     :     0.031216
  2 O s       :     3.563191  s :     3.563191
      pz      :     1.469090  p :     4.838571
      px      :     1.795459
      py      :     1.574022
      dz2     :     0.011468  d :     0.025329
      dxz     :     0.004828
      dyz     :     0.007499
      dx2y2   :     0.000760
      dxy     :     0.000774
  3 C s       :     3.275140  s :     3.275140
      pz      :     0.871413  p :     2.927760
      px      :     0.908492
      py      :     1.147856
      dz2     :     0.011621  d :     0.090949
      dxz     :     0.007034
      dyz     :     0.022682
      dx2y2   :     0.024355
      dxy     :     0.025258
  4 N s       :     3.456627  s :     3.456627
      pz      :     1.176348  p :     3.812001
      px      :     1.206956
      py      :     1.428697
      dz2     :     0.005506  d :     0.043152
      dxz     :     0.003081
      dyz     :     0.010128
      dx2y2   :     0.011640
      dxy     :     0.012798
  5 C s       :     2.863247  s :     2.863247
      pz      :     1.063979  p :     3.165340
      px      :     1.046965
      py      :     1.054396
      dz2     :     0.018699  d :     0.068292
      dxz     :     0.008332
      dyz     :     0.010686
      dx2y2   :     0.014298
      dxy     :     0.016277
  6 H s       :     0.897555  s :     0.897555
      pz      :     0.017302  p :     0.067214
      px      :     0.018579
      py      :     0.031333
  7 H s       :     0.901808  s :     0.901808
      pz      :     0.041526  p :     0.067475
      px      :     0.012736
      py      :     0.013214
  8 H s       :     0.902628  s :     0.902628
      pz      :     0.013150  p :     0.067007
      px      :     0.024401
      py      :     0.029456
  9 H s       :     0.902234  s :     0.902234
      pz      :     0.041347  p :     0.067494
      px      :     0.012761
      py      :     0.013387
 10 H s       :     0.897998  s :     0.897998
      pz      :     0.017748  p :     0.067122
      px      :     0.014225
      py      :     0.035149
 11 H s       :     0.903813  s :     0.903813
      pz      :     0.015955  p :     0.066876
      px      :     0.035862
      py      :     0.015059


                      *****************************
                      * MAYER POPULATION ANALYSIS *
                      *****************************

  NA   - Mulliken gross atomic population
  ZA   - Total nuclear charge
  QA   - Mulliken gross atomic charge
  VA   - Mayer's total valence
  BVA  - Mayer's bonded valence
  FA   - Mayer's free valence

  ATOM       NA         ZA         QA         VA         BVA        FA
  0 C      6.0272     6.0000    -0.0272     3.7970     3.7970     0.0000
  1 C      6.0281     6.0000    -0.0281     4.3279     4.3279     0.0000
  2 O      8.5100     8.0000    -0.5100     1.9482     1.9482     0.0000
  3 C      6.3684     6.0000    -0.3684     3.4898     3.4898     0.0000
  4 N      7.3129     7.0000    -0.3129     3.0530     3.0530    -0.0000
  5 C      6.0155     6.0000    -0.0155     3.7988     3.7988    -0.0000
  6 H      0.9505     1.0000     0.0495     0.9961     0.9961     0.0000
  7 H      0.9581     1.0000     0.0419     0.9983     0.9983     0.0000
  8 H      0.9559     1.0000     0.0441     1.0068     1.0068     0.0000
  9 H      0.9603     1.0000     0.0397     0.9982     0.9982    -0.0000
 10 H      0.9519     1.0000     0.0481     0.9969     0.9969    -0.0000
 11 H      0.9612     1.0000     0.0388     1.0086     1.0086     0.0000

  Mayer bond orders larger than 0.1
B(  0-C ,  1-C ) :   0.9999 B(  0-C ,  6-H ) :   0.9500 B(  0-C ,  7-H ) :   0.9553 
B(  0-C ,  8-H ) :   0.9618 B(  1-C ,  2-O ) :   1.7921 B(  1-C ,  3-C ) :   0.4244 
B(  1-C ,  5-C ) :   1.0011 B(  3-C ,  4-N ) :   3.0028 B(  5-C ,  9-H ) :   0.9553 
B(  5-C , 10-H ) :   0.9506 B(  5-C , 11-H ) :   0.9612 

-------
TIMINGS
-------

Total SCF time: 0 days 0 hours 0 min 5 sec 

Total time                  ....       5.349 sec
Sum of individual times     ....       5.166 sec  ( 96.6%)

Fock matrix formation       ....       4.755 sec  ( 88.9%)
  Split-RI-J                ....       1.059 sec  ( 22.3% of F)
  Chain of spheres X        ....       1.542 sec  ( 32.4% of F)
  XC integration            ....       0.205 sec  (  4.3% of F)
    Basis function eval.    ....       0.056 sec  ( 27.3% of XC)
    Density eval.           ....       0.023 sec  ( 11.3% of XC)
    XC-Functional eval.     ....       0.013 sec  (  6.6% of XC)
    XC-Potential eval.      ....       0.029 sec  ( 14.0% of XC)
Diagonalization             ....       0.001 sec  (  0.0%)
Density matrix formation    ....       0.003 sec  (  0.1%)
Population analysis         ....       0.003 sec  (  0.1%)
Initial guess               ....       0.005 sec  (  0.1%)
Orbital Transformation      ....       0.000 sec  (  0.0%)
Orbital Orthonormalization  ....       0.003 sec  (  0.0%)
DIIS solution               ....       0.000 sec  (  0.0%)
SOSCF solution              ....       0.007 sec  (  0.1%)
Grid generation             ....       0.392 sec  (  7.3%)


-------------------------------------------------------------------------------
                          DFT DISPERSION CORRECTION                            
                                                                               
                              DFTD3 V3.1  Rev 1                                
                          USING Becke-Johnson damping                          
-------------------------------------------------------------------------------
The PBE0 functional is recognized
Active option DFTDOPT                   ...         4   

molecular C6(AA) [au] = 1460.245407 


            DFT-D V3
 parameters
 s6 scaling factor         :     1.0000 
 a1 scaling factor         :     0.4145 
 s8 scaling factor         :     1.2177 
 a2 scaling factor         :     4.8593 
 ad hoc parameters k1-k3   :    16.0000     1.3333    -4.0000 

 Edisp/kcal,au: -5.156569469439  -0.008217515643 
 E6   /kcal   :  -3.280868040 
 E8   /kcal   :  -1.875701429 
 % E8         :  36.374986127 

-------------------------   ----------------
Dispersion correction           -0.008217516
-------------------------   ----------------


-------------------------   --------------------
FINAL SINGLE POINT ENERGY      -285.548596083840
-------------------------   --------------------

                                *** OPTIMIZATION RUN DONE ***

                            ***************************************
                            *     ORCA property calculations      *
                            ***************************************

                                    ---------------------
                                    Active property flags
                                    ---------------------
   (+) Dipole Moment


------------------------------------------------------------------------------
                       ORCA ELECTRIC PROPERTIES CALCULATION
------------------------------------------------------------------------------

Dipole Moment Calculation                       ... on
Quadrupole Moment Calculation                   ... off
Polarizability Calculation                      ... off
GBWName                                         ... template_ts_guess_orca_constrained_opt.gbw
Electron density file                           ... template_ts_guess_orca_constrained_opt.scfp.tmp
The origin for moment calculation is the CENTER OF MASS  = (-0.365017,  1.156397 -0.265462)

-------------
DIPOLE MOMENT
-------------
                                X             Y             Z
Electronic contribution:     -1.45030       4.59650      -0.93861
Nuclear contribution   :      2.29640      -7.18044       1.36492
                        -----------------------------------------
Total Dipole Moment    :      0.84609      -2.58394       0.42631
                        -----------------------------------------
Magnitude (a.u.)       :      2.75216
Magnitude (Debye)      :      6.99542



--------------------
Rotational spectrum 
--------------------
 
Rotational constants in cm-1:     0.164735     0.081081     0.077823 
Rotational constants in MHz :  4938.633216  2430.734751  2333.071109 

 Dipole components along the rotational axes: 
x,y,z [a.u.] :     2.205471    -0.055071     1.645363 
x,y,z [Debye]:     5.605863    -0.139978     4.182182 

 

Timings for individual modules:

Sum of individual times         ...      302.494 sec (=   5.042 min)
GTO integral calculation        ...       27.909 sec (=   0.465 min)   9.2 %
SCF iterations                  ...      213.514 sec (=   3.559 min)  70.6 %
SCF Gradient evaluation         ...       59.850 sec (=   0.997 min)  19.8 %
Geometry relaxation             ...        1.221 sec (=   0.020 min)   0.4 %
                             ****ORCA TERMINATED NORMALLY****
TOTAL RUN TIME: 0 days 0 hours 5 minutes 7 seconds 370 msec
