
                                 *****************
                                 * O   R   C   A *
                                 *****************

           --- An Ab Initio, DFT and Semiempirical electronic structure package ---

                  #######################################################
                  #                        -***-                        #
                  #          Department of theory and spectroscopy      #
                  #               Directorship: Frank Neese             #
                  #        Max Planck Institute fuer Kohlenforschung    #
                  #                Kaiser Wilhelm Platz 1               #
                  #                 D-45470 Muelheim/Ruhr               #
                  #                      Germany                        #
                  #                                                     #
                  #                  All rights reserved                #
                  #                        -***-                        #
                  #######################################################


                         Program Version 4.1.1  - RELEASE  -


 With contributions from (in alphabetic order):
   Daniel Aravena         : Magnetic Properties
   Michael Atanasov       : Ab Initio Ligand Field Theory
   Alexander A. Auer      : GIAO ZORA
   Ute Becker             : Parallelization
   Giovanni Bistoni       : ED, Open-shell LED
   Martin Brehm           : Molecular dynamics
   Dmytro Bykov           : SCF Hessian
   Vijay G. Chilkuri      : MRCI spin determinant printing
   Dipayan Datta          : RHF DLPNO-CCSD density
   Achintya Kumar Dutta   : EOM-CC, STEOM-CC
   Dmitry Ganyushin       : Spin-Orbit,Spin-Spin,Magnetic field MRCI
   Miquel Garcia          : C-PCM Hessian
   Yang Guo               : DLPNO-NEVPT2, CIM, IAO-localization
   Andreas Hansen         : Spin unrestricted coupled pair/coupled cluster methods
   Benjamin Helmich-Paris : CASSCF linear response (MC-RPA)
   Lee Huntington         : MR-EOM, pCC
   Robert Izsak           : Overlap fitted RIJCOSX, COSX-SCS-MP3, EOM
   Christian Kollmar      : KDIIS, OOCD, Brueckner-CCSD(T), CCSD density
   Simone Kossmann        : Meta GGA functionals, TD-DFT gradient, OOMP2, MP2 Hessian
   Martin Krupicka        : AUTO-CI
   Lucas Lang             : DCDCAS
   Dagmar Lenk            : GEPOL surface, SMD
   Dimitrios Liakos       : Extrapolation schemes; parallel MDCI
   Dimitrios Manganas     : ROCIS; embedding schemes
   Dimitrios Pantazis     : SARC Basis sets
   Taras Petrenko         : DFT Hessian,TD-DFT gradient, ASA, ECA, R-Raman, ABS, FL, XAS/XES, NRVS
   Peter Pinski           : DLPNO-MP2, DLPNO-MP2 Gradient
   Christoph Reimann      : Effective Core Potentials
   Marius Retegan         : Local ZFS, SOC
   Christoph Riplinger    : Optimizer, TS searches, QM/MM, DLPNO-CCSD(T), (RO)-DLPNO pert. Triples
   Tobias Risthaus        : Range-separated hybrids, TD-DFT gradient, RPA, STAB
   Michael Roemelt        : Restricted open shell CIS
   Masaaki Saitow         : Open-shell DLPNO
   Barbara Sandhoefer     : DKH picture change effects
   Avijit Sen             : IP-ROCIS
   Kantharuban Sivalingam : CASSCF convergence, NEVPT2, FIC-MRCI
   Bernardo de Souza      : ESD, SOC TD-DFT
   Georgi Stoychev        : AutoAux, RI-MP2 NMR
   Willem Van den Heuvel  : Paramagnetic NMR
   Boris Wezisla          : Elementary symmetry handling
   Frank Wennmohs         : Technical directorship


 We gratefully acknowledge several colleagues who have allowed us to
 interface, adapt or use parts of their codes:
   Stefan Grimme, W. Hujo, H. Kruse,             : VdW corrections, initial TS optimization,
                  C. Bannwarth                     DFT functionals, gCP, sTDA/sTD-DF
   Ed Valeev                                     : LibInt (2-el integral package), F12 methods
   Garnet Chan, S. Sharma, J. Yang, R. Olivares  : DMRG
   Ulf Ekstrom                                   : XCFun DFT Library
   Mihaly Kallay                                 : mrcc  (arbitrary order and MRCC methods)
   Andreas Klamt, Michael Diedenhofen            : otool_cosmo (COSMO solvation model)
   Jiri Pittner, Ondrej Demel                    : Mk-CCSD
   Frank Weinhold                                : gennbo (NPA and NBO analysis)
   Christopher J. Cramer and Donald G. Truhlar   : smd solvation model
   Lars Goerigk                                  : TD-DFT with DH, B97 family of functionals
   V. Asgeirsson, H. Jonsson                     : NEB implementation
   FAccTs GmbH                                   : IRC, NEB, NEB-TS, Multilevel


 Your calculation uses the libint2 library for the computation of 2-el integrals
 For citations please refer to: http://libint.valeyev.net

 This ORCA versions uses:
   CBLAS   interface :  Fast vector & matrix operations
   LAPACKE interface :  Fast linear algebra routines
   SCALAPACK package :  Parallel linear algebra routines


Your calculation utilizes the atom-pairwise dispersion correction
with the Becke-Johnson damping scheme (D3BJ)
Cite in your paper:
S.Grimme, S.Ehrlich, L.Goerigk, J Comput Chem, (2011), 32, 1456–1465 
S.Grimme, J.Antony, S.Ehrlich and H.Krieg, J.Chem.Phys., 132, (2010), 154104 
   

----- Orbital basis set information -----
Your calculation utilizes the basis: def2-SVP
   F. Weigend and R. Ahlrichs, Phys. Chem. Chem. Phys. 7, 3297 (2005).

----- AuxJ basis set information -----
Your calculation utilizes the auxiliary basis: def2/J
   F. Weigend, Phys. Chem. Chem. Phys. 8, 1057 (2006).

================================================================================
                                        WARNINGS
                       Please study these warnings very carefully!
================================================================================


WARNING: Geometry Optimization
  ===> : Switching off AutoStart
         For restart on a previous wavefunction, please use MOREAD

INFO   : the flag for use of LIBINT has been found!

================================================================================
                                       INPUT FILE
================================================================================
NAME = xtb1d_05_45_orca_opt.inp
|  1> ! OptTS Freq PBE0 RIJCOSX D3BJ def2-SVP def2/J PAL8
|  2> %geom
|  3> Calc_Hess true
|  4> Recalc_Hess 40
|  5> Trust 0.2
|  6> MaxIter 100
|  7> end
|  8> %geom
|  9> modify_internal
| 10> { B 4 5 A } end
| 11> end
| 12> %geom
| 13> modify_internal
| 14> { B 0 5 A } end
| 15> end
| 16> %geom MaxIter 100 end
| 17> %scf 
| 18> maxiter 250 
| 19> end
| 20> % maxcore 4000
| 21> *xyz 1 1
| 22> N  -0.08119870  0.30954947 -0.15958455 
| 23> H   0.03779212  1.31219783 -0.25587962 
| 24> H   0.34946416 -0.12630579 -0.96797390 
| 25> H   0.44861851  0.02031656  0.65544553 
| 26> N  -4.27436325  0.69419551 -0.41632207 
| 27> C  -2.72147362 -0.76221293  0.20886937 
| 28> H  -4.13010134  1.49266440  0.18936910 
| 29> H  -5.15947321  0.22471226 -0.26854931 
| 30> H  -4.06865593  0.88017953 -1.39016854 
| 31> H  -3.00428108 -1.55234463 -0.46878667 
| 32> H  -1.78595215 -0.20182012  0.00732982 
| 33> H  -3.04751550 -0.86907210  1.23153084 
| 34> *
| 35> 
| 36>                          ****END OF INPUT****
================================================================================

                       *****************************
                       * Geometry Optimization Run *
                       *****************************

Geometry optimization settings:
Update method            Update   .... Bofill
Choice of coordinates    CoordSys .... Z-matrix Internals
Initial Hessian          InHess   .... Almoef's Model

Convergence Tolerances:
Energy Change            TolE     ....  5.0000e-06 Eh
Max. Gradient            TolMAXG  ....  3.0000e-04 Eh/bohr
RMS Gradient             TolRMSG  ....  1.0000e-04 Eh/bohr
Max. Displacement        TolMAXD  ....  4.0000e-03 bohr
RMS Displacement         TolRMSD  ....  2.0000e-03 bohr

------------------------------------------------------------------------------
                        ORCA OPTIMIZATION COORDINATE SETUP
------------------------------------------------------------------------------

The optimization will be done in new redundant internal coordinates
Making redundant internal coordinates   ...  (new redundants) Bond   5,  4 is already included
done
Following TS mode number                ...     0
Evaluating the initial hessian          ...  (Is done on the fly) done
Evaluating the coordinates              ...  done
Calculating the B-matrix                .... done
Calculating the G-matrix                .... done
Diagonalizing the G-matrix              .... done
The first mode is                       ....   26
The number of degrees of freedom        ....   30

    -----------------------------------------------------------------
                    Redundant Internal Coordinates


    -----------------------------------------------------------------
         Definition                    Initial Value    d2E/dq (diagonal element)
    -----------------------------------------------------------------
      1. B(H   1,N   0)                  1.0143         0.000000   
      2. B(H   2,N   0)                  1.0144         0.000000   
      3. B(H   3,N   0)                  1.0142         0.000000   
      4. B(C   5,N   4)                  2.2189         0.000000   
      5. B(C   5,N   0)                  2.8732         0.000000   
      6. B(H   6,C   5)                  2.6588         0.000000   
      7. B(H   6,N   4)                  1.0125         0.000000   
      8. B(H   7,C   5)                  2.6732         0.000000   
      9. B(H   7,N   4)                  1.0128         0.000000   
     10. B(H   8,C   5)                  2.6588         0.000000   
     11. B(H   8,N   4)                  1.0126         0.000000   
     12. B(H   9,N   4)                  2.5812         0.000000   
     13. B(H   9,C   5)                  1.0787         0.000000   
     14. B(H   9,H   8)                  2.8105         0.000000   
     15. B(H   9,H   7)                  2.8005         0.000000   
     16. B(H  10,N   0)                  1.7876         0.000000   
     17. B(H  10,N   4)                  2.6785         0.000000   
     18. B(H  10,C   5)                  1.1090         0.000000   
     19. B(H  11,H   7)                  2.8119         0.000000   
     20. B(H  11,H   6)                  2.7993         0.000000   
     21. B(H  11,N   4)                  2.5815         0.000000   
     22. B(H  11,C   5)                  1.0787         0.000000   
     23. A(H   1,N   0,H  10)          113.7991         0.000000   
     24. A(H   1,N   0,H   3)          107.2728         0.000000   
     25. A(H   3,N   0,H  10)          109.9722         0.000000   
     26. A(H   2,N   0,H  10)          110.8782         0.000000   
     27. A(H   1,N   0,H   2)          107.4150         0.000000   
     28. A(H   2,N   0,H   3)          107.2236         0.000000   
     29. A(C   5,N   4,H   6)          104.4387         0.000000   
     30. A(H   7,N   4,H   8)          113.7677         0.000000   
     31. A(H   6,N   4,H   8)          113.6740         0.000000   
     32. A(H   6,N   4,H   7)          113.7533         0.000000   
     33. A(C   5,N   4,H   8)          104.4401         0.000000   
     34. A(C   5,N   4,H   7)          105.4417         0.000000   
     35. A(H   9,C   5,H  10)          118.4997         0.000000   
     36. A(H  10,C   5,H  11)          118.5113         0.000000   
     37. A(N   4,C   5,H   9)           96.9092         0.000000   
     38. A(H   9,C   5,H  11)          116.3464         0.000000   
     39. A(N   4,C   5,H  10)          101.9759         0.000000   
     40. A(N   4,C   5,H  11)           96.9274         0.000000   
     41. A(N   0,H  10,C   5)          165.0169         0.000000   
     42. D(H  11,C   5,N   4,H   6)     60.3201         0.000000   
     43. D(H   9,C   5,N   4,H   7)     57.8592         0.000000   
     44. D(H  10,C   5,N   4,H   6)    -60.8321         0.000000   
     45. D(H   9,C   5,N   4,H   6)    178.0338         0.000000   
     46. D(H   9,C   5,N   4,H   8)    -62.3324         0.000000   
     47. D(H  10,C   5,N   4,H   8)     58.8016         0.000000   
     48. D(H  11,C   5,N   4,H   7)    -59.8546         0.000000   
     49. D(H  11,C   5,N   4,H   8)    179.9538         0.000000   
     50. D(H  10,C   5,N   4,H   7)    178.9932         0.000000   
     51. D(N   0,H  10,C   5,H  11)     75.7313         0.000000   
     52. D(N   0,H  10,C   5,H   9)    -74.6838         0.000000   
     53. D(C   5,H  10,N   0,H   3)    -42.4047         0.000000   
     54. D(C   5,H  10,N   0,H   2)     76.0073         0.000000   
     55. D(N   0,H  10,C   5,N   4)   -179.4633         0.000000   
     56. D(C   5,H  10,N   0,H   1)   -162.7734         0.000000   
    -----------------------------------------------------------------

Number of atoms                         .... 12
Number of degrees of freedom            .... 56

         *************************************************************
         *                GEOMETRY OPTIMIZATION CYCLE   1            *
         *************************************************************
---------------------------------
CARTESIAN COORDINATES (ANGSTROEM)
---------------------------------
  N     -0.081199    0.309549   -0.159585
  H      0.037792    1.312198   -0.255880
  H      0.349464   -0.126306   -0.967974
  H      0.448619    0.020317    0.655446
  N     -4.274363    0.694196   -0.416322
  C     -2.721474   -0.762213    0.208869
  H     -4.130101    1.492664    0.189369
  H     -5.159473    0.224712   -0.268549
  H     -4.068656    0.880180   -1.390169
  H     -3.004281   -1.552345   -0.468787
  H     -1.785952   -0.201820    0.007330
  H     -3.047515   -0.869072    1.231531

----------------------------
CARTESIAN COORDINATES (A.U.)
----------------------------
  NO LB      ZA    FRAG     MASS         X           Y           Z
   0 N     7.0000    0    14.007   -0.153443    0.584964   -0.301571
   1 H     1.0000    0     1.008    0.071417    2.479695   -0.483542
   2 H     1.0000    0     1.008    0.660392   -0.238683   -1.829206
   3 H     1.0000    0     1.008    0.847766    0.038393    1.238613
   4 N     7.0000    0    14.007   -8.077376    1.311839   -0.786735
   5 C     6.0000    0    12.011   -5.142840   -1.440374    0.394706
   6 H     1.0000    0     1.008   -7.804760    2.820727    0.357856
   7 H     1.0000    0     1.008   -9.749991    0.424645   -0.507485
   8 H     1.0000    0     1.008   -7.688645    1.663298   -2.627038
   9 H     1.0000    0     1.008   -5.677268   -2.933506   -0.885878
  10 H     1.0000    0     1.008   -3.374960   -0.381385    0.013851
  11 H     1.0000    0     1.008   -5.758970   -1.642308    2.327256

--------------------------------
INTERNAL COORDINATES (ANGSTROEM)
--------------------------------
 N      0   0   0     0.000000000000     0.00000000     0.00000000
 H      1   0   0     1.014265887014     0.00000000     0.00000000
 H      1   2   0     1.014363666466   107.41501402     0.00000000
 H      1   2   3     1.014216931206   107.27279565   114.99357444
 N      1   2   3     4.218589299000    91.18597670   243.95387038
 C      5   1   2     2.218886225951    39.40957378   196.21054536
 H      5   1   2     1.012534374918    83.90827956   317.86987351
 H      5   1   2     1.012754141892   144.84011101   194.37012939
 H      5   1   2     1.012562345897    82.72384741    72.74970254
 H      6   5   1     1.078659293440    96.90922992   238.95858292
 H      6   5   1     1.108989951508   101.97588703     0.09261829
 H      6   5   1     1.078683768279    96.92744212   121.24483401

---------------------------
INTERNAL COORDINATES (A.U.)
---------------------------
 N      0   0   0     0.000000000000     0.00000000     0.00000000
 H      1   0   0     1.916684753436     0.00000000     0.00000000
 H      1   2   0     1.916869529821   107.41501402     0.00000000
 H      1   2   3     1.916592240365   107.27279565   114.99357444
 N      1   2   3     7.971978446601    91.18597670   243.95387038
 C      5   1   2     4.193087289377    39.40957378   196.21054536
 H      5   1   2     1.913412669776    83.90827956   317.86987351
 H      5   1   2     1.913827969171   144.84011101   194.37012939
 H      5   1   2     1.913465527266    82.72384741    72.74970254
 H      6   5   1     2.038370656411    96.90922992   238.95858292
 H      6   5   1     2.095687293620   101.97588703     0.09261829
 H      6   5   1     2.038416907154    96.92744212   121.24483401

---------------------
BASIS SET INFORMATION
---------------------
There are 3 groups of distinct atoms

 Group   1 Type N   : 7s4p1d contracted to 3s2p1d pattern {511/31/1}
 Group   2 Type H   : 4s1p contracted to 2s1p pattern {31/1}
 Group   3 Type C   : 7s4p1d contracted to 3s2p1d pattern {511/31/1}

Atom   0N    basis set group =>   1
Atom   1H    basis set group =>   2
Atom   2H    basis set group =>   2
Atom   3H    basis set group =>   2
Atom   4N    basis set group =>   1
Atom   5C    basis set group =>   3
Atom   6H    basis set group =>   2
Atom   7H    basis set group =>   2
Atom   8H    basis set group =>   2
Atom   9H    basis set group =>   2
Atom  10H    basis set group =>   2
Atom  11H    basis set group =>   2
-------------------------------
AUXILIARY BASIS SET INFORMATION
-------------------------------
There are 3 groups of distinct atoms

 Group   1 Type N   : 12s5p4d2f1g contracted to 6s4p3d1f1g pattern {711111/2111/211/2/1}
 Group   2 Type H   : 5s2p1d contracted to 3s1p1d pattern {311/2/1}
 Group   3 Type C   : 12s5p4d2f1g contracted to 6s4p3d1f1g pattern {711111/2111/211/2/1}

Atom   0N    basis set group =>   1
Atom   1H    basis set group =>   2
Atom   2H    basis set group =>   2
Atom   3H    basis set group =>   2
Atom   4N    basis set group =>   1
Atom   5C    basis set group =>   3
Atom   6H    basis set group =>   2
Atom   7H    basis set group =>   2
Atom   8H    basis set group =>   2
Atom   9H    basis set group =>   2
Atom  10H    basis set group =>   2
Atom  11H    basis set group =>   2


           ************************************************************
           *        Program running with 8 parallel MPI-processes     *
           *              working on a common directory               *
           ************************************************************
------------------------------------------------------------------------------
                           ORCA GTO INTEGRAL CALCULATION
                           -- RI-GTO INTEGRALS CHOSEN --
------------------------------------------------------------------------------

                         BASIS SET STATISTICS AND STARTUP INFO

Gaussian basis set:
 # of primitive gaussian shells          ...   81
 # of primitive gaussian functions       ...  135
 # of contracted shells                  ...   45
 # of contracted basis functions         ...   87
 Highest angular momentum                ...    2
 Maximum contraction depth               ...    5
Auxiliary gaussian basis set:
 # of primitive gaussian shells          ...  144
 # of primitive gaussian functions       ...  354
 # of contracted shells                  ...   90
 # of contracted aux-basis functions     ...  246
 Highest angular momentum                ...    4
 Maximum contraction depth               ...    7
Ratio of auxiliary to basis functions    ...  2.83
Integral package used                  ... LIBINT
 One Electron integrals                  ... done
 Ordering auxiliary basis shells         ... done
 Integral threshhold             Thresh  ...  2.500e-11
 Primitive cut-off               TCut    ...  2.500e-12
 Pre-screening matrix                    ... done
 Shell pair data                         ... 
 Ordering of the shell pairs             ... done (   0.000 sec) 997 of 1035 pairs
 Determination of significant pairs      ... done (   0.000 sec)
 Creation of shell pair data             ... done (   0.000 sec)
 Storage of shell pair data              ... done (   0.047 sec)
 Shell pair data done in (   0.047 sec)
 Computing two index integrals           ... done
 Cholesky decomposition of the V-matrix  ... done


Timings:
 Total evaluation time                   ...   0.190 sec (  0.003 min)
 One electron matrix time                ...   0.007 sec (  0.000 min) =  3.7%
 Schwartz matrix evaluation time         ...   0.107 sec (  0.002 min) = 56.3%
 Two index repulsion integral time       ...   0.002 sec (  0.000 min) =  0.9%
 Cholesky decomposition of V             ...   0.001 sec (  0.000 min) =  0.7%
 Three index repulsion integral time     ...   0.000 sec (  0.000 min) =  0.0%



           ************************************************************
           *        Program running with 8 parallel MPI-processes     *
           *              working on a common directory               *
           ************************************************************
-------------------------------------------------------------------------------
                                 ORCA SCF
-------------------------------------------------------------------------------

------------
SCF SETTINGS
------------
Hamiltonian:
 Density Functional     Method          .... DFT(GTOs)
 Exchange Functional    Exchange        .... PBE
   PBE kappa parameter   XKappa         ....  0.804000
   PBE mue parameter    XMuePBE         ....  0.219520
 Correlation Functional Correlation     .... PBE
   PBE beta parameter  CBetaPBE         ....  0.066725
 LDA part of GGA corr.  LDAOpt          .... PW91-LDA
 Gradients option       PostSCFGGA      .... off
 Hybrid DFT is turned on
   Fraction HF Exchange ScalHFX         ....  0.250000
   Scaling of DF-GGA-X  ScalDFX         ....  0.750000
   Scaling of DF-GGA-C  ScalDFC         ....  1.000000
   Scaling of DF-LDA-C  ScalLDAC        ....  1.000000
   Perturbative correction              ....  0.000000
   Density functional embedding theory  .... OFF
   NL short-range parameter             ....  6.900000
 RI-approximation to the Coulomb term is turned on
   Number of auxiliary basis functions  .... 246
   RIJ-COSX (HFX calculated with COS-X)).... on


General Settings:
 Integral files         IntName         .... xtb1d_05_45_orca_opt
 Hartree-Fock type      HFTyp           .... RHF
 Total Charge           Charge          ....    1
 Multiplicity           Mult            ....    1
 Number of Electrons    NEL             ....   28
 Basis Dimension        Dim             ....   87
 Nuclear Repulsion      ENuc            ....     81.1179940960 Eh

Convergence Acceleration:
 DIIS                   CNVDIIS         .... on
   Start iteration      DIISMaxIt       ....    12
   Startup error        DIISStart       ....  0.200000
   # of expansion vecs  DIISMaxEq       ....     5
   Bias factor          DIISBfac        ....   1.050
   Max. coefficient     DIISMaxC        ....  10.000
 Newton-Raphson         CNVNR           .... off
 SOSCF                  CNVSOSCF        .... on
   Start iteration      SOSCFMaxIt      ....   150
   Startup grad/error   SOSCFStart      ....  0.003300
 Level Shifting         CNVShift        .... on
   Level shift para.    LevelShift      ....    0.2500
   Turn off err/grad.   ShiftErr        ....    0.0010
 Zerner damping         CNVZerner       .... off
 Static damping         CNVDamp         .... on
   Fraction old density DampFac         ....    0.7000
   Max. Damping (<1)    DampMax         ....    0.9800
   Min. Damping (>=0)   DampMin         ....    0.0000
   Turn off err/grad.   DampErr         ....    0.1000
 Fernandez-Rico         CNVRico         .... off

SCF Procedure:
 Maximum # iterations   MaxIter         ....   250
 SCF integral mode      SCFMode         .... Direct
   Integral package                     .... LIBINT
 Reset frequency        DirectResetFreq ....    20
 Integral Threshold     Thresh          ....  2.500e-11 Eh
 Primitive CutOff       TCut            ....  2.500e-12 Eh

Convergence Tolerance:
 Convergence Check Mode ConvCheckMode   .... Total+1el-Energy
 Convergence forced     ConvForced      .... 0
 Energy Change          TolE            ....  1.000e-08 Eh
 1-El. energy change                    ....  1.000e-05 Eh
 Orbital Gradient       TolG            ....  1.000e-05
 Orbital Rotation angle TolX            ....  1.000e-05
 DIIS Error             TolErr          ....  5.000e-07


Diagonalization of the overlap matrix:
Smallest eigenvalue                        ... 7.280e-03
Time for diagonalization                   ...    0.001 sec
Threshold for overlap eigenvalues          ... 1.000e-08
Number of eigenvalues below threshold      ... 0
Time for construction of square roots      ...    0.001 sec
Total time needed                          ...    0.002 sec

-------------------
DFT GRID GENERATION
-------------------

General Integration Accuracy     IntAcc      ...  4.340
Radial Grid Type                 RadialGrid  ... Gauss-Chebyshev
Angular Grid (max. acc.)         AngularGrid ... Lebedev-110
Angular grid pruning method      GridPruning ... 3 (G Style)
Weight generation scheme         WeightScheme... Becke
Basis function cutoff            BFCut       ...    1.0000e-11
Integration weight cutoff        WCut        ...    1.0000e-14
Grids for H and He will be reduced by one unit

# of grid points (after initial pruning)     ...  12206 (   0.0 sec)
# of grid points (after weights+screening)   ...  11685 (   0.0 sec)
nearest neighbour list constructed           ...    0.0 sec
Grid point re-assignment to atoms done       ...    0.0 sec
Grid point division into batches done        ...    0.0 sec
Reduced shell lists constructed in    0.0 sec

Total number of grid points                  ...    11685
Total number of batches                      ...      188
Average number of points per batch           ...       62
Average number of grid points per atom       ...      974
Average number of shells per batch           ...    32.36 (71.91%)
Average number of basis functions per batch  ...    58.20 (66.90%)
Average number of large shells per batch     ...    25.60 (79.11%)
Average number of large basis fcns per batch ...    44.72 (76.84%)
Maximum spatial batch extension              ...  13.88, 11.47, 15.95 au
Average spatial batch extension              ...   0.47,  0.41,  0.44 au

Time for grid setup =    0.031 sec

------------------------------
INITIAL GUESS: MODEL POTENTIAL
------------------------------
Loading Hartree-Fock densities                     ... done
Calculating cut-offs                               ... done
Setting up the integral package                    ... done
Initializing the effective Hamiltonian             ... done
Starting the Coulomb interaction                   ... done (   0.0 sec)
Reading the grid                                   ... done
Mapping shells                                     ... done
Starting the XC term evaluation                    ... done (   0.0 sec)
  promolecular density results
     # of electrons  =     28.987018170
     EX              =    -20.770328978
     EC              =     -0.890859999
     EX+EC           =    -21.661188977
Transforming the Hamiltonian                       ... done (   0.0 sec)
Diagonalizing the Hamiltonian                      ... done (   0.0 sec)
Back transforming the eigenvectors                 ... done (   0.0 sec)
Now organizing SCF variables                       ... done
                      ------------------
                      INITIAL GUESS DONE (   0.1 sec)
                      ------------------
--------------------
COSX GRID GENERATION
--------------------

General Integration Accuracy     IntAcc      ...  3.340
Radial Grid Type                 RadialGrid  ... Gauss-Chebyshev
Angular Grid (max. acc.)         AngularGrid ... Lebedev-50
Angular grid pruning method      GridPruning ... 3 (G Style)
Weight generation scheme         WeightScheme... Becke
Basis function cutoff            BFCut       ...    1.0000e-11
Integration weight cutoff        WCut        ...    1.0000e-14
Grids for H and He will be reduced by one unit

# of grid points (after initial pruning)     ...   4592 (   0.0 sec)
# of grid points (after weights+screening)   ...   4384 (   0.0 sec)
nearest neighbour list constructed           ...    0.0 sec
Grid point re-assignment to atoms done       ...    0.0 sec
Grid point division into batches done        ...    0.0 sec
Reduced shell lists constructed in    0.0 sec

Total number of grid points                  ...     4384
Total number of batches                      ...       75
Average number of points per batch           ...       58
Average number of grid points per atom       ...      365
Average number of shells per batch           ...    33.91 (75.35%)
Average number of basis functions per batch  ...    62.45 (71.79%)
Average number of large shells per batch     ...    26.45 (78.02%)
Average number of large basis fcns per batch ...    46.27 (74.09%)
Maximum spatial batch extension              ...  12.33, 10.89, 16.92 au
Average spatial batch extension              ...   0.77,  0.65,  0.67 au

Overlap Fitting                  UseSFitting ... on
Constructing numerical overlap ... done (      0.0 sec)
Inverting numerical overlap    ... done (      0.0 sec)
Obtaining analytic overlap     ... done (      0.0 sec)
Final contraction and storage  ... done (      0.0 sec)


General Integration Accuracy     IntAcc      ...  3.670
Radial Grid Type                 RadialGrid  ... Gauss-Chebyshev
Angular Grid (max. acc.)         AngularGrid ... Lebedev-50
Angular grid pruning method      GridPruning ... 3 (G Style)
Weight generation scheme         WeightScheme... Becke
Basis function cutoff            BFCut       ...    1.0000e-11
Integration weight cutoff        WCut        ...    1.0000e-14
Grids for H and He will be reduced by one unit

# of grid points (after initial pruning)     ...   6042 (   0.0 sec)
# of grid points (after weights+screening)   ...   5753 (   0.0 sec)
nearest neighbour list constructed           ...    0.0 sec
Grid point re-assignment to atoms done       ...    0.0 sec
Grid point division into batches done        ...    0.0 sec
Reduced shell lists constructed in    0.0 sec

Total number of grid points                  ...     5753
Total number of batches                      ...       97
Average number of points per batch           ...       59
Average number of grid points per atom       ...      479
Average number of shells per batch           ...    33.21 (73.81%)
Average number of basis functions per batch  ...    60.50 (69.54%)
Average number of large shells per batch     ...    26.07 (78.49%)
Average number of large basis fcns per batch ...    45.50 (75.21%)
Maximum spatial batch extension              ...  12.89, 11.37, 18.77 au
Average spatial batch extension              ...   0.66,  0.57,  0.64 au

Overlap Fitting                  UseSFitting ... on
Constructing numerical overlap ... done (      0.0 sec)
Inverting numerical overlap    ... done (      0.0 sec)
Obtaining analytic overlap     ... done (      0.0 sec)
Final contraction and storage  ... done (      0.0 sec)


General Integration Accuracy     IntAcc      ...  4.010
Radial Grid Type                 RadialGrid  ... Gauss-Chebyshev
Angular Grid (max. acc.)         AngularGrid ... Lebedev-110
Angular grid pruning method      GridPruning ... 3 (G Style)
Weight generation scheme         WeightScheme... Becke
Basis function cutoff            BFCut       ...    1.0000e-11
Integration weight cutoff        WCut        ...    1.0000e-14
Grids for H and He will be reduced by one unit

# of grid points (after initial pruning)     ...  10416 (   0.0 sec)
# of grid points (after weights+screening)   ...   9978 (   0.0 sec)
nearest neighbour list constructed           ...    0.0 sec
Grid point re-assignment to atoms done       ...    0.0 sec
Grid point division into batches done        ...    0.0 sec
Reduced shell lists constructed in    0.0 sec

Total number of grid points                  ...     9978
Total number of batches                      ...      163
Average number of points per batch           ...       61
Average number of grid points per atom       ...      832
Average number of shells per batch           ...    32.41 (72.02%)
Average number of basis functions per batch  ...    58.14 (66.82%)
Average number of large shells per batch     ...    26.32 (81.21%)
Average number of large basis fcns per batch ...    46.32 (79.67%)
Maximum spatial batch extension              ...  12.96, 11.08, 17.46 au
Average spatial batch extension              ...   0.47,  0.43,  0.48 au

Overlap Fitting                  UseSFitting ... on
Constructing numerical overlap ... done (      0.0 sec)
Inverting numerical overlap    ... done (      0.0 sec)
Obtaining analytic overlap     ... done (      0.0 sec)
Final contraction and storage  ... done (      0.0 sec)

Time for X-Grid setup             =    0.120 sec
--------------
SCF ITERATIONS
--------------
ITER       Energy         Delta-E        Max-DP      RMS-DP      [F,P]     Damp
               ***  Starting incremental Fock matrix formation  ***
  0   -152.2940837851   0.000000000000 0.09042283  0.00316978  0.2577918 0.7000
  1   -152.3534791859  -0.059395400734 0.05256430  0.00222332  0.1199592 0.7000
                               ***Turning on DIIS***
  2   -152.3752987222  -0.021819536305 0.07801313  0.00336853  0.0363290 0.0000
  3   -152.4092997331  -0.034001010868 0.03491910  0.00150889  0.0701675 0.0000
  4   -152.4175927855  -0.008293052489 0.01540784  0.00052193  0.0112792 0.0000
                      *** Initiating the SOSCF procedure ***
                           *** Shutting down DIIS ***
                      *** Re-Reading the Fockian *** 
                      *** Removing any level shift *** 
ITER      Energy       Delta-E        Grad      Rot      Max-DP    RMS-DP
  5   -152.41798246  -0.0003896698  0.000781  0.000781  0.003115  0.000135
               *** Restarting incremental Fock matrix formation ***
  6   -152.41799787  -0.0000154188  0.000462  0.000977  0.002352  0.000105
  7   -152.41799574   0.0000021335  0.000791  0.001136  0.000881  0.000037
  8   -152.41800146  -0.0000057204  0.000121  0.000331  0.000340  0.000016
  9   -152.41800130   0.0000001610  0.000147  0.000173  0.000236  0.000010
 10   -152.41800158  -0.0000002790  0.000003  0.000008  0.000011  0.000000
                  ***Gradient check signals convergence***
              ***Rediagonalizing the Fockian in SOSCF/NRSCF***

               *****************************************************
               *                     SUCCESS                       *
               *           SCF CONVERGED AFTER  11 CYCLES          *
               *****************************************************

Setting up the final grid:

General Integration Accuracy     IntAcc      ...  4.670
Radial Grid Type                 RadialGrid  ... Gauss-Chebyshev
Angular Grid (max. acc.)         AngularGrid ... Lebedev-302
Angular grid pruning method      GridPruning ... 3 (G Style)
Weight generation scheme         WeightScheme... Becke
Basis function cutoff            BFCut       ...    1.0000e-11
Integration weight cutoff        WCut        ...    1.0000e-14
Grids for H and He will be reduced by one unit

# of grid points (after initial pruning)     ...  49182 (   0.0 sec)
# of grid points (after weights+screening)   ...  46539 (   0.0 sec)
nearest neighbour list constructed           ...    0.0 sec
Grid point re-assignment to atoms done       ...    0.0 sec
Grid point division into batches done        ...    0.1 sec
Reduced shell lists constructed in    0.1 sec

Total number of grid points                  ...    46539
Total number of batches                      ...      735
Average number of points per batch           ...       63
Average number of grid points per atom       ...     3878
Average number of shells per batch           ...    30.19 (67.10%)
Average number of basis functions per batch  ...    53.70 (61.72%)
Average number of large shells per batch     ...    23.95 (79.31%)
Average number of large basis fcns per batch ...    41.54 (77.35%)
Maximum spatial batch extension              ...  12.89, 13.49, 13.97 au
Average spatial batch extension              ...   0.29,  0.28,  0.30 au

Final grid set up in    0.2 sec
Final integration                            ... done (   0.0 sec)
Change in XC energy                          ...    -0.000433199
Integrated number of electrons               ...    27.999992962
Previous integrated no of electrons          ...    27.996334528
Old exchange energy                            =     -5.297989080 Eh
New exchange energy                            =     -5.298207126 Eh
Exchange energy change after final integration =     -0.000218046 Eh
Total energy after final integration           =   -152.418652820 Eh
Final COS-X integration done in                =     0.163 sec

----------------
TOTAL SCF ENERGY
----------------

Total Energy       :         -152.41865282 Eh           -4147.52240 eV

Components:
Nuclear Repulsion  :           81.11799410 Eh            2207.33284 eV
Electronic Energy  :         -233.53664692 Eh           -6354.85524 eV
One Electron Energy:         -359.66346683 Eh           -9786.94049 eV
Two Electron Energy:          126.12681991 Eh            3432.08525 eV

Virial components:
Potential Energy   :         -303.08719781 Eh           -8247.42194 eV
Kinetic Energy     :          150.66854499 Eh            4099.89954 eV
Virial Ratio       :            2.01161562


DFT components:
N(Alpha)           :       13.999996480774 electrons
N(Beta)            :       13.999996480774 electrons
N(Total)           :       27.999992961549 electrons
E(X)               :      -15.836404695664 Eh       
E(C)               :       -0.889060226047 Eh       
E(XC)              :      -16.725464921710 Eh       
DFET-embed. en.    :        0.000000000000 Eh       

---------------
SCF CONVERGENCE
---------------

  Last Energy change         ...    3.3657e-09  Tolerance :   1.0000e-08
  Last MAX-Density change    ...    1.3323e-15  Tolerance :   1.0000e-07
  Last RMS-Density change    ...    3.7235e-17  Tolerance :   5.0000e-09
  Last Orbital Gradient      ...    2.2129e-06  Tolerance :   1.0000e-05
  Last Orbital Rotation      ...    1.6738e-06  Tolerance :   1.0000e-05

             **** THE GBW FILE WAS UPDATED (xtb1d_05_45_orca_opt.gbw) ****
             **** DENSITY FILE WAS UPDATED (xtb1d_05_45_orca_opt.scfp.tmp) ****
             **** ENERGY FILE WAS UPDATED (xtb1d_05_45_orca_opt.en.tmp) ****
----------------
ORBITAL ENERGIES
----------------

  NO   OCC          E(Eh)            E(eV) 
   0   2.0000     -14.653698      -398.7474 
   1   2.0000     -14.530262      -395.3885 
   2   2.0000     -10.499948      -285.7181 
   3   2.0000      -1.114539       -30.3281 
   4   2.0000      -1.024721       -27.8841 
   5   2.0000      -0.900843       -24.5132 
   6   2.0000      -0.735556       -20.0155 
   7   2.0000      -0.735067       -20.0022 
   8   2.0000      -0.641609       -17.4591 
   9   2.0000      -0.639955       -17.4141 
  10   2.0000      -0.632030       -17.1984 
  11   2.0000      -0.630851       -17.1663 
  12   2.0000      -0.555558       -15.1175 
  13   2.0000      -0.439319       -11.9545 
  14   0.0000      -0.271365        -7.3842 
  15   0.0000      -0.125282        -3.4091 
  16   0.0000      -0.069698        -1.8966 
  17   0.0000      -0.049001        -1.3334 
  18   0.0000      -0.040954        -1.1144 
  19   0.0000      -0.039495        -1.0747 
  20   0.0000      -0.020752        -0.5647 
  21   0.0000       0.014986         0.4078 
  22   0.0000       0.015678         0.4266 
  23   0.0000       0.099215         2.6998 
  24   0.0000       0.219626         5.9763 
  25   0.0000       0.233118         6.3435 
  26   0.0000       0.285542         7.7700 
  27   0.0000       0.346794         9.4367 
  28   0.0000       0.367355         9.9962 
  29   0.0000       0.391782        10.6609 
  30   0.0000       0.410521        11.1709 
  31   0.0000       0.422341        11.4925 
  32   0.0000       0.464388        12.6366 
  33   0.0000       0.503375        13.6975 
  34   0.0000       0.506041        13.7701 
  35   0.0000       0.523769        14.2525 
  36   0.0000       0.571078        15.5398 
  37   0.0000       0.608962        16.5707 
  38   0.0000       0.617373        16.7996 
  39   0.0000       0.635127        17.2827 
  40   0.0000       0.699871        19.0444 
  41   0.0000       0.702654        19.1202 
  42   0.0000       0.741232        20.1700 
  43   0.0000       0.889566        24.2063 
  44   0.0000       0.974857        26.5272 
  45   0.0000       0.988419        26.8962 
  46   0.0000       1.035515        28.1778 
  47   0.0000       1.045825        28.4583 
  48   0.0000       1.058425        28.8012 
  49   0.0000       1.061383        28.8817 
  50   0.0000       1.105376        30.0788 
  51   0.0000       1.302847        35.4523 
  52   0.0000       1.338615        36.4256 
  53   0.0000       1.441929        39.2369 
  54   0.0000       1.457694        39.6659 
  55   0.0000       1.459668        39.7196 
  56   0.0000       1.464243        39.8441 
  57   0.0000       1.595080        43.4043 
  58   0.0000       1.645356        44.7724 
  59   0.0000       1.654203        45.0131 
  60   0.0000       1.683246        45.8035 
  61   0.0000       1.690736        46.0073 
  62   0.0000       1.760709        47.9113 
  63   0.0000       1.841833        50.1188 
  64   0.0000       1.902806        51.7780 
  65   0.0000       1.953234        53.1502 
  66   0.0000       1.956831        53.2481 
  67   0.0000       1.971214        53.6395 
  68   0.0000       1.973107        53.6910 
  69   0.0000       2.050463        55.7959 
  70   0.0000       2.084955        56.7345 
  71   0.0000       2.162634        58.8483 
  72   0.0000       2.205879        60.0250 
  73   0.0000       2.323692        63.2309 
  74   0.0000       2.549844        69.3848 
  75   0.0000       2.550638        69.4064 
  76   0.0000       2.640619        71.8549 
  77   0.0000       2.662311        72.4452 
  78   0.0000       2.664004        72.4912 
  79   0.0000       2.683777        73.0293 
  80   0.0000       2.734926        74.4211 
  81   0.0000       2.813402        76.5566 
  82   0.0000       2.857164        77.7474 
  83   0.0000       3.050267        83.0020 
  84   0.0000       3.052928        83.0744 
  85   0.0000       3.190708        86.8236 
  86   0.0000       3.192397        86.8695 

                    ********************************
                    * MULLIKEN POPULATION ANALYSIS *
                    ********************************

-----------------------
MULLIKEN ATOMIC CHARGES
-----------------------
   0 N :   -0.268926
   1 H :    0.141548
   2 H :    0.144179
   3 H :    0.144658
   4 N :   -0.185700
   5 C :    0.009943
   6 H :    0.203640
   7 H :    0.204927
   8 H :    0.204028
   9 H :    0.139851
  10 H :    0.121830
  11 H :    0.140022
Sum of atomic charges:    1.0000000

--------------------------------
MULLIKEN REDUCED ORBITAL CHARGES
--------------------------------
  0 N s       :     3.399684  s :     3.399684
      pz      :     1.126461  p :     3.855652
      px      :     1.574956
      py      :     1.154235
      dz2     :     0.001913  d :     0.013591
      dxz     :     0.005510
      dyz     :     0.001246
      dx2y2   :     0.003094
      dxy     :     0.001829
  1 H s       :     0.810730  s :     0.810730
      pz      :     0.009260  p :     0.047722
      px      :     0.013302
      py      :     0.025160
  2 H s       :     0.808410  s :     0.808410
      pz      :     0.019914  p :     0.047411
      px      :     0.014457
      py      :     0.013040
  3 H s       :     0.807986  s :     0.807986
      pz      :     0.020805  p :     0.047356
      px      :     0.015510
      py      :     0.011040
  4 N s       :     3.385490  s :     3.385490
      pz      :     1.186008  p :     3.790028
      px      :     1.305452
      py      :     1.298568
      dz2     :     0.003544  d :     0.010182
      dxz     :     0.000178
      dyz     :     0.002811
      dx2y2   :     0.002674
      dxy     :     0.000975
  5 C s       :     3.287459  s :     3.287459
      pz      :     1.035477  p :     2.687409
      px      :     0.824787
      py      :     0.827144
      dz2     :     0.004633  d :     0.015189
      dxz     :     0.002360
      dyz     :     0.003750
      dx2y2   :     0.001743
      dxy     :     0.002703
  6 H s       :     0.750652  s :     0.750652
      pz      :     0.016081  p :     0.045709
      px      :     0.009703
      py      :     0.019925
  7 H s       :     0.749482  s :     0.749482
      pz      :     0.009017  p :     0.045590
      px      :     0.022645
      py      :     0.013929
  8 H s       :     0.750275  s :     0.750275
      pz      :     0.026161  p :     0.045697
      px      :     0.010237
      py      :     0.009299
  9 H s       :     0.834864  s :     0.834864
      pz      :     0.009741  p :     0.025285
      px      :     0.004670
      py      :     0.010874
 10 H s       :     0.843408  s :     0.843408
      pz      :     0.004320  p :     0.034762
      px      :     0.023329
      py      :     0.007114
 11 H s       :     0.834728  s :     0.834728
      pz      :     0.016254  p :     0.025250
      px      :     0.004907
      py      :     0.004089


                     *******************************
                     * LOEWDIN POPULATION ANALYSIS *
                     *******************************

----------------------
LOEWDIN ATOMIC CHARGES
----------------------
   0 N :   -0.079329
   1 H :    0.077493
   2 H :    0.079120
   3 H :    0.079463
   4 N :    0.136866
   5 C :    0.231330
   6 H :    0.113050
   7 H :    0.113437
   8 H :    0.113133
   9 H :    0.057263
  10 H :    0.020871
  11 H :    0.057303

-------------------------------
LOEWDIN REDUCED ORBITAL CHARGES
-------------------------------
  0 N s       :     3.114293  s :     3.114293
      pz      :     1.174163  p :     3.933759
      px      :     1.563872
      py      :     1.195724
      dz2     :     0.006075  d :     0.031277
      dxz     :     0.010626
      dyz     :     0.004878
      dx2y2   :     0.007009
      dxy     :     0.002688
  1 H s       :     0.799389  s :     0.799389
      pz      :     0.019724  p :     0.123118
      px      :     0.038710
      py      :     0.064685
  2 H s       :     0.797783  s :     0.797783
      pz      :     0.048464  p :     0.123096
      px      :     0.045450
      py      :     0.029182
  3 H s       :     0.797471  s :     0.797471
      pz      :     0.049302  p :     0.123066
      px      :     0.049421
      py      :     0.024342
  4 N s       :     3.063564  s :     3.063564
      pz      :     1.206811  p :     3.772353
      px      :     1.284981
      py      :     1.280561
      dz2     :     0.009596  d :     0.027217
      dxz     :     0.001215
      dyz     :     0.007410
      dx2y2   :     0.005586
      dxy     :     0.003410
  5 C s       :     2.998504  s :     2.998504
      pz      :     1.058163  p :     2.733583
      px      :     0.834985
      py      :     0.840435
      dz2     :     0.011405  d :     0.036584
      dxz     :     0.005513
      dyz     :     0.008983
      dx2y2   :     0.003909
      dxy     :     0.006774
  6 H s       :     0.765570  s :     0.765570
      pz      :     0.039040  p :     0.121380
      px      :     0.025516
      py      :     0.056824
  7 H s       :     0.764994  s :     0.764994
      pz      :     0.019913  p :     0.121569
      px      :     0.065206
      py      :     0.036450
  8 H s       :     0.765484  s :     0.765484
      pz      :     0.069401  p :     0.121383
      px      :     0.026830
      py      :     0.025153
  9 H s       :     0.867429  s :     0.867429
      pz      :     0.028469  p :     0.075308
      px      :     0.013800
      py      :     0.033039
 10 H s       :     0.846708  s :     0.846708
      pz      :     0.012362  p :     0.132420
      px      :     0.093999
      py      :     0.026059
 11 H s       :     0.867411  s :     0.867411
      pz      :     0.048942  p :     0.075287
      px      :     0.014638
      py      :     0.011706


                      *****************************
                      * MAYER POPULATION ANALYSIS *
                      *****************************

  NA   - Mulliken gross atomic population
  ZA   - Total nuclear charge
  QA   - Mulliken gross atomic charge
  VA   - Mayer's total valence
  BVA  - Mayer's bonded valence
  FA   - Mayer's free valence

  ATOM       NA         ZA         QA         VA         BVA        FA
  0 N      7.2689     7.0000    -0.2689     3.2159     3.2159     0.0000
  1 H      0.8585     1.0000     0.1415     0.9892     0.9892     0.0000
  2 H      0.8558     1.0000     0.1442     0.9865     0.9865     0.0000
  3 H      0.8553     1.0000     0.1447     0.9862     0.9862    -0.0000
  4 N      7.1857     7.0000    -0.1857     3.5408     3.5408     0.0000
  5 C      5.9901     6.0000     0.0099     3.3994     3.3994     0.0000
  6 H      0.7964     1.0000     0.2036     0.9667     0.9667     0.0000
  7 H      0.7951     1.0000     0.2049     0.9652     0.9652     0.0000
  8 H      0.7960     1.0000     0.2040     0.9663     0.9663     0.0000
  9 H      0.8601     1.0000     0.1399     0.9736     0.9736    -0.0000
 10 H      0.8782     1.0000     0.1218     1.1414     1.1414     0.0000
 11 H      0.8600     1.0000     0.1400     0.9737     0.9737     0.0000

  Mayer bond orders larger than 0.1
B(  0-N ,  1-H ) :   0.9794 B(  0-N ,  2-H ) :   0.9789 B(  0-N ,  3-H ) :   0.9794 
B(  0-N , 10-H ) :   0.3050 B(  4-N ,  5-C ) :   0.6616 B(  4-N ,  6-H ) :   0.9538 
B(  4-N ,  7-H ) :   0.9522 B(  4-N ,  8-H ) :   0.9537 B(  5-C ,  9-H ) :   0.9652 
B(  5-C , 10-H ) :   0.8254 B(  5-C , 11-H ) :   0.9655 

-------
TIMINGS
-------

Total SCF time: 0 days 0 hours 0 min 3 sec 

Total time                  ....       3.524 sec
Sum of individual times     ....       3.393 sec  ( 96.3%)

Fock matrix formation       ....       2.901 sec  ( 82.3%)
  Split-RI-J                ....       1.395 sec  ( 48.1% of F)
  Chain of spheres X        ....       1.268 sec  ( 43.7% of F)
  COS-X 1 center corr.      ....       0.000 sec  (  0.0% of F)
  XC integration            ....       0.186 sec  (  6.4% of F)
    Basis function eval.    ....       0.046 sec  ( 24.5% of XC)
    Density eval.           ....       0.016 sec  (  8.7% of XC)
    XC-Functional eval.     ....       0.014 sec  (  7.2% of XC)
    XC-Potential eval.      ....       0.021 sec  ( 11.4% of XC)
Diagonalization             ....       0.005 sec  (  0.1%)
Density matrix formation    ....       0.002 sec  (  0.1%)
Population analysis         ....       0.002 sec  (  0.1%)
Initial guess               ....       0.110 sec  (  3.1%)
Orbital Transformation      ....       0.000 sec  (  0.0%)
Orbital Orthonormalization  ....       0.000 sec  (  0.0%)
DIIS solution               ....       0.002 sec  (  0.0%)
SOSCF solution              ....       0.003 sec  (  0.1%)
Grid generation             ....       0.368 sec  ( 10.5%)


-------------------------------------------------------------------------------
                          DFT DISPERSION CORRECTION                            
                                                                               
                              DFTD3 V3.1  Rev 1                                
                          USING Becke-Johnson damping                          
-------------------------------------------------------------------------------
The PBE0 functional is recognized
Active option DFTDOPT                   ...         4   

molecular C6(AA) [au] = 823.403800 


            DFT-D V3
 parameters
 s6 scaling factor         :     1.0000 
 a1 scaling factor         :     0.4145 
 s8 scaling factor         :     1.2177 
 a2 scaling factor         :     4.8593 
 ad hoc parameters k1-k3   :    16.0000     1.3333    -4.0000 

 Edisp/kcal,au: -2.845806940017  -0.004535081547 
 E6   /kcal   :  -1.936784102 
 E8   /kcal   :  -0.909022838 
 % E8         :  31.942533615 

-------------------------   ----------------
Dispersion correction           -0.004535082
-------------------------   ----------------


-------------------------   --------------------
FINAL SINGLE POINT ENERGY      -152.423187901706
-------------------------   --------------------



           ************************************************************
           *        Program running with 8 parallel MPI-processes     *
           *              working on a common directory               *
           ************************************************************
------------------------------------------------------------------------------
                         ORCA SCF GRADIENT CALCULATION
------------------------------------------------------------------------------

Gradient of the Kohn-Sham DFT energy:
Kohn-Sham wavefunction type      ... RKS
Hartree-Fock exchange scaling    ...    0.250
Number of operators              ...    1
Number of atoms                  ...   12
Basis set dimensions             ...   87
Integral neglect threshold       ... 2.5e-11
Integral primitive cutoff        ... 2.5e-12

Nuclear repulsion gradient       ... done
One Electron Gradient            ... done
Pre-screening matrix             ... done
RI-J gradient                    ... done
COSX-gradient                    ... done
Exchange-correlation gradient    ... done
Dispersion correction            ... done

------------------
CARTESIAN GRADIENT
------------------

   1   N   :    0.003169792    0.001308036    0.000877445
   2   H   :   -0.003436001   -0.004494180    0.000581043
   3   H   :   -0.004450818    0.001050537    0.003076742
   4   H   :   -0.004886074    0.000526657   -0.003012296
   5   N   :   -0.047118942    0.044122508   -0.019847082
   6   C   :    0.040626624   -0.032698896    0.015463935
   7   H   :    0.002302312   -0.005994386   -0.001124495
   8   H   :    0.006490793   -0.000370265    0.000276866
   9   H   :    0.001981810   -0.003798663    0.005225879
  10   H   :    0.005280942    0.008339040    0.007303272
  11   H   :   -0.006176615   -0.007292081    0.002933784
  12   H   :    0.005866055    0.001293773   -0.011111055

Difference to translation invariance:
           :   -0.0003501213    0.0019920785    0.0006440380

Norm of the cartesian gradient     ...    0.0903824775
RMS gradient                       ...    0.0150637462
MAX gradient                       ...    0.0471189417

-------
TIMINGS
-------

Total SCF gradient time            ...        0.671 sec

One electron gradient       ....       0.007 sec  (  1.1%)
Prescreening matrices       ....       0.004 sec  (  0.7%)
RI-J Coulomb gradient       ....       0.111 sec  ( 16.5%)
COSX gradient               ....       0.109 sec  ( 16.3%)
XC gradient                 ....       0.126 sec  ( 18.8%)


           ************************************************************
           *        Program running with 8 parallel MPI-processes     *
           *              working on a common directory               *
           ************************************************************

-------------------------------------------------------------------------------
                               ORCA SCF HESSIAN
-------------------------------------------------------------------------------

Hessian of the Kohn-Sham DFT energy:
Kohn-Sham wavefunction type                      ... RKS
Hartree-Fock exchange scaling                    ...    0.250
Number of operators                              ...    1
Number of atoms                                  ...   12
Basis set dimensions                             ...   87
Integral neglect threshold                       ... 2.5e-11
Integral primitive cutoff                        ... 2.5e-12

Setting up DFT Hessian calculations              ... 
Electron density on the grid                     ... found on disk
Electron density on the final grid               ... found on disk
Building xc-kernel on the grid                   ... done   (      0.0 sec)
Building xc-kernel on the final grid             ... done   (      0.0 sec)
                                                     done   (      0.1 sec)

Nuclear repulsion Hessian                        ... done   (      0.0 sec)

----------------------------------------------
Forming right-hand sides of CP-SCF equations     ...
----------------------------------------------
One electron integral derivatives                ... done   (      0.1 sec)
Transforming the overlap derivative matrices     ... done   (      0.0 sec)
Making the Q(x) pseudodensities                  ... done   (      0.0 sec)
Adding the E*S(x)*S(y) terms to the Hessian      ... done   (      0.0 sec)
Calculating energy weighted overlap derivatives  ... done   (      0.0 sec)
Two electron integral derivatives (RI)           ... done   (      0.5 sec)
Exchange-correlation integral derivatives        ... done   (      1.3 sec)
tr(F(y)Q(x)) contribution to the Hessian         ... done   (      0.0 sec)
Response fock operator R(S(x)) (RIJCOSX)         ... done   (      0.8 sec)
XC Response fock operator R(S(x))                ... done   (      0.5 sec)
tr(F(y)S(x)) contribution to the Hessian         ... done   (      0.0 sec)
Transforming and finalizing RHSs                 ... done   (      0.0 sec)

----------------------------------------------
Solving the CP-SCF equations (RIJCOSX)           ...
----------------------------------------------
     CP-SCF ITERATION   0: 
     CP-SCF ITERATION   1:      0.001168046304
     CP-SCF ITERATION   2:      0.000246360436
     CP-SCF ITERATION   3:      0.000022014396
     CP-SCF ITERATION   4:      0.000002295943
     CP-SCF ITERATION   5:      0.000000052720
     CP-SCF ITERATION   6:      0.000000009732

                                                 ... done   (      3.4 sec)
Forming perturbed density Hessian contributions  ... done   (      0.0 sec)
2nd integral derivative contribs (RI)            ... done   (      1.1 sec)
Exchange-correlation Hessian                     ... done   (      1.3 sec)
Dispersion correction in the Hessian             ... done   (      1.1 sec)
Dipol derivatives                                ... done   (      0.1 sec)

Total SCF Hessian time: 0 days 0 hours 0 min 10 sec 

Writing the Hessian file to the disk             ... done


Maximum memory used throughout the entire calculation: 122.2 MB

-----------------------
VIBRATIONAL FREQUENCIES
-----------------------

Scaling factor for frequencies =  1.000000000  (already applied!)

   0:         0.00 cm**-1
   1:         0.00 cm**-1
   2:         0.00 cm**-1
   3:         0.00 cm**-1
   4:         0.00 cm**-1
   5:         0.00 cm**-1
   6:      -284.92 cm**-1 ***imaginary mode***
   7:      -271.92 cm**-1 ***imaginary mode***
   8:      -229.17 cm**-1 ***imaginary mode***
   9:      -202.59 cm**-1 ***imaginary mode***
  10:       101.02 cm**-1
  11:       231.99 cm**-1
  12:       300.38 cm**-1
  13:       334.97 cm**-1
  14:       538.96 cm**-1
  15:       563.75 cm**-1
  16:       778.02 cm**-1
  17:       822.98 cm**-1
  18:       963.83 cm**-1
  19:      1082.21 cm**-1
  20:      1266.64 cm**-1
  21:      1362.27 cm**-1
  22:      1471.30 cm**-1
  23:      1567.35 cm**-1
  24:      1568.96 cm**-1
  25:      1628.90 cm**-1
  26:      1630.89 cm**-1
  27:      2893.05 cm**-1
  28:      3347.42 cm**-1
  29:      3462.31 cm**-1
  30:      3563.64 cm**-1
  31:      3571.44 cm**-1
  32:      3700.13 cm**-1
  33:      3700.74 cm**-1
  34:      3750.31 cm**-1
  35:      3751.66 cm**-1


------------
NORMAL MODES
------------

These modes are the Cartesian displacements weighted by the diagonal matrix
M(i,i)=1/sqrt(m[i]) where m[i] is the mass of the displaced atom
Thus, these vectors are normalized but *not* orthogonal

                  0          1          2          3          4          5    
      0       0.000000   0.000000   0.000000   0.000000   0.000000   0.000000
      1       0.000000   0.000000   0.000000   0.000000   0.000000   0.000000
      2       0.000000   0.000000   0.000000   0.000000   0.000000   0.000000
      3       0.000000   0.000000   0.000000   0.000000   0.000000   0.000000
      4       0.000000   0.000000   0.000000   0.000000   0.000000   0.000000
      5       0.000000   0.000000   0.000000   0.000000   0.000000   0.000000
      6       0.000000   0.000000   0.000000   0.000000   0.000000   0.000000
      7       0.000000   0.000000   0.000000   0.000000   0.000000   0.000000
      8       0.000000   0.000000   0.000000   0.000000   0.000000   0.000000
      9       0.000000   0.000000   0.000000   0.000000   0.000000   0.000000
     10       0.000000   0.000000   0.000000   0.000000   0.000000   0.000000
     11       0.000000   0.000000   0.000000   0.000000   0.000000   0.000000
     12       0.000000   0.000000   0.000000   0.000000   0.000000   0.000000
     13       0.000000   0.000000   0.000000   0.000000   0.000000   0.000000
     14       0.000000   0.000000   0.000000   0.000000   0.000000   0.000000
     15       0.000000   0.000000   0.000000   0.000000   0.000000   0.000000
     16       0.000000   0.000000   0.000000   0.000000   0.000000   0.000000
     17       0.000000   0.000000   0.000000   0.000000   0.000000   0.000000
     18       0.000000   0.000000   0.000000   0.000000   0.000000   0.000000
     19       0.000000   0.000000   0.000000   0.000000   0.000000   0.000000
     20       0.000000   0.000000   0.000000   0.000000   0.000000   0.000000
     21       0.000000   0.000000   0.000000   0.000000   0.000000   0.000000
     22       0.000000   0.000000   0.000000   0.000000   0.000000   0.000000
     23       0.000000   0.000000   0.000000   0.000000   0.000000   0.000000
     24       0.000000   0.000000   0.000000   0.000000   0.000000   0.000000
     25       0.000000   0.000000   0.000000   0.000000   0.000000   0.000000
     26       0.000000   0.000000   0.000000   0.000000   0.000000   0.000000
     27       0.000000   0.000000   0.000000   0.000000   0.000000   0.000000
     28       0.000000   0.000000   0.000000   0.000000   0.000000   0.000000
     29       0.000000   0.000000   0.000000   0.000000   0.000000   0.000000
     30       0.000000   0.000000   0.000000   0.000000   0.000000   0.000000
     31       0.000000   0.000000   0.000000   0.000000   0.000000   0.000000
     32       0.000000   0.000000   0.000000   0.000000   0.000000   0.000000
     33       0.000000   0.000000   0.000000   0.000000   0.000000   0.000000
     34       0.000000   0.000000   0.000000   0.000000   0.000000   0.000000
     35       0.000000   0.000000   0.000000   0.000000   0.000000   0.000000
                  6          7          8          9         10         11    
      0       0.034689   0.000179   0.000621   0.000013   0.144443  -0.095724
      1      -0.011401  -0.001231  -0.007360   0.008052  -0.059590   0.078068
      2       0.004913  -0.003296  -0.017628   0.021140   0.027789  -0.028235
      3      -0.209337  -0.062354  -0.025360  -0.081594   0.550606   0.664154
      4       0.018238   0.034973  -0.034909  -0.015442  -0.106517  -0.011638
      5      -0.001880   0.292834  -0.336420  -0.325863   0.056087   0.007357
      6       0.061493   0.187620   0.101090   0.274929   0.101083  -0.195879
      7       0.089968   0.251137  -0.257906  -0.251567  -0.228087  -0.248010
      8      -0.035585  -0.038138   0.170932   0.308242   0.095285   0.092258
      9       0.162024  -0.130790  -0.074849  -0.199347  -0.094901  -0.502174
     10       0.107304  -0.178240   0.281066   0.377515  -0.278200  -0.318149
     11      -0.036184   0.019956   0.133757   0.282289   0.107047   0.099438
     12      -0.290908   0.001897   0.000115  -0.001108  -0.200295   0.039152
     13       0.269426  -0.002476   0.004335   0.014038  -0.049662   0.016911
     14      -0.115721  -0.000089   0.012394   0.034632   0.015181  -0.005735
     15       0.311894  -0.001844  -0.000810   0.001804   0.054938   0.044022
     16      -0.323581  -0.007628   0.002458  -0.032924   0.159370  -0.063794
     17       0.137224  -0.026231   0.003695  -0.081936  -0.063032   0.022441
     18      -0.219470  -0.046466  -0.302091   0.235350  -0.298279   0.113092
     19       0.209420  -0.041534  -0.178840   0.098035  -0.027175  -0.004633
     20      -0.067679   0.063092   0.326392  -0.132127   0.007862   0.004803
     21      -0.238385   0.004216   0.017114  -0.013602  -0.105461  -0.005076
     22       0.195247  -0.030716  -0.165854   0.133418  -0.209273   0.094027
     23      -0.094811  -0.075547  -0.426285   0.338961   0.082429  -0.035312
     24      -0.206876   0.045855   0.284979  -0.227023  -0.303193   0.107982
     25       0.208556   0.071304   0.359703  -0.167122  -0.026088  -0.000747
     26      -0.100854   0.023280   0.140737  -0.047526  -0.001376   0.005667
     27       0.117546  -0.320638  -0.031981  -0.132134   0.155559   0.053895
     28      -0.202622  -0.218258  -0.013655  -0.056031   0.105276  -0.079407
     29       0.076644   0.354345   0.035672   0.001797  -0.042366   0.035684
     30       0.233325   0.007917   0.000424   0.004753  -0.038937  -0.046745
     31      -0.192239  -0.157763  -0.012967  -0.077671   0.283672   0.065742
     32       0.064171  -0.397837  -0.033240  -0.192804  -0.114520  -0.038075
     33       0.143624   0.307762   0.030094   0.132389   0.155017   0.072306
     34      -0.163661   0.411488   0.036098   0.044218   0.105545  -0.056843
     35       0.100818   0.117610   0.017157  -0.031637  -0.036478   0.032830
                 12         13         14         15         16         17    
      0      -0.004818   0.261142  -0.000074   0.007892   0.000083  -0.010349
      1      -0.031226   0.134448   0.003642  -0.016024   0.000607   0.002725
      2      -0.085083  -0.050219   0.010343   0.006562   0.001333  -0.001378
      3      -0.171714   0.518780   0.016412  -0.099257   0.002259   0.048555
      4       0.020769   0.105113  -0.001461  -0.003555   0.000982  -0.003409
      5       0.240914  -0.025701  -0.021860  -0.002542   0.007521   0.007003
      6       0.625034   0.276129  -0.062185   0.015151  -0.008420  -0.018118
      7       0.243193   0.051427  -0.022614   0.031812   0.007494  -0.033869
      8       0.106881   0.002080  -0.008996  -0.014839  -0.006895   0.013092
      9      -0.475686   0.133090   0.046373   0.068429   0.006742  -0.050737
     10      -0.076069   0.012923   0.005939   0.044433  -0.009787  -0.039849
     11       0.208364  -0.008649  -0.019400  -0.012436  -0.006770   0.011465
     12       0.001973  -0.044859  -0.002191  -0.045626   0.002620  -0.039778
     13       0.001582   0.008457   0.013920  -0.032811  -0.026903  -0.051662
     14       0.002159  -0.004385   0.036611   0.010626  -0.068179   0.018848
     15       0.002998  -0.256236  -0.000028  -0.002543  -0.002676   0.080461
     16       0.021770  -0.156143  -0.000945   0.021791   0.025726   0.040215
     17       0.058381   0.058464  -0.004360  -0.008630   0.065535  -0.013270
     18      -0.057486   0.072148  -0.342798   0.344693   0.249610   0.156375
     19       0.040403  -0.015246   0.312805  -0.125854  -0.256618  -0.085080
     20      -0.035997   0.002312  -0.278730   0.041411   0.173650   0.013817
     21       0.002385  -0.148976   0.002570  -0.378249  -0.005094  -0.231376
     22      -0.011955   0.181266  -0.054161   0.524877   0.033901   0.264709
     23      -0.038868  -0.078230  -0.151391  -0.216201   0.079073  -0.111532
     24       0.068048   0.080581   0.360216   0.336629  -0.254648   0.156364
     25      -0.053329  -0.019466  -0.414050  -0.103594   0.301496  -0.069271
     26       0.004990   0.014645   0.029955   0.077236  -0.061252   0.058399
     27       0.154451  -0.337647  -0.318829   0.236466  -0.402674  -0.379417
     28       0.141301  -0.095504   0.232370  -0.111654   0.373021   0.278364
     29      -0.145300   0.023727  -0.138473   0.045927  -0.154297  -0.089047
     30      -0.004781  -0.199892  -0.002579  -0.190965  -0.002812   0.424535
     31       0.059250  -0.243875  -0.028314   0.258453  -0.016717  -0.358084
     32       0.126691   0.097921  -0.089156  -0.105846  -0.050213   0.153208
     33      -0.136449  -0.346423   0.332621   0.221746   0.409366  -0.368374
     34      -0.211050  -0.101870  -0.263295  -0.095965  -0.374911   0.247331
     35      -0.011024   0.034023   0.077533   0.051279   0.167174  -0.141043
                 18         19         20         21         22         23    
      0       0.000933   0.113516   0.009193  -0.004390  -0.000276   0.000046
      1       0.000484   0.031877  -0.007890   0.006296   0.007198  -0.000415
      2      -0.000207  -0.010461   0.003532  -0.002557   0.018525  -0.000699
      3       0.002214  -0.554647  -0.064597   0.015696   0.004406   0.001687
      4       0.000066   0.078981  -0.002257   0.003689  -0.004564  -0.000348
      5       0.000158   0.027721  -0.006546   0.005549  -0.091846   0.000672
      6      -0.001939  -0.497343  -0.026559  -0.000705  -0.038381   0.001995
      7      -0.001651  -0.257956   0.012851  -0.023262   0.012725   0.002856
      8      -0.000306  -0.135883  -0.023228   0.015666  -0.007078  -0.001287
      9      -0.003672  -0.477348  -0.004643  -0.015007   0.034654  -0.004320
     10      -0.001928  -0.224272   0.012821  -0.022878  -0.055767   0.003978
     11       0.001676   0.239546   0.016016  -0.005925  -0.028256   0.003681
     12       0.074232   0.000067   0.012285  -0.009001  -0.000227   0.008574
     13      -0.068218   0.001168  -0.009390  -0.000243   0.001806   0.033601
     14       0.029690  -0.000493   0.004009  -0.000283   0.004742   0.057567
     15       0.009595  -0.007424   0.039210  -0.071168  -0.001963  -0.000220
     16      -0.014772   0.001826  -0.084767  -0.025745   0.028554  -0.000578
     17       0.005972  -0.001021   0.035070   0.008451   0.071282  -0.001042
     18      -0.439379  -0.000071   0.026960   0.010284   0.019669   0.335330
     19       0.268498  -0.000524  -0.021104   0.011187   0.008985   0.013586
     20      -0.266258   0.001973   0.010029  -0.017839  -0.009187  -0.006526
     21      -0.262534  -0.000034   0.033584  -0.020162   0.001599   0.010456
     22       0.463336   0.000802  -0.037003   0.014256  -0.015626  -0.218779
     23      -0.191021  -0.000114   0.015868  -0.005166  -0.039668  -0.720683
     24      -0.446146   0.000078   0.026998   0.010576  -0.018450  -0.468555
     25       0.362341  -0.001580  -0.021050   0.020575  -0.011999  -0.283733
     26      -0.013979  -0.001161   0.008563   0.006534  -0.001587  -0.110152
     27       0.009364   0.006239  -0.171749   0.441034   0.277415  -0.018315
     28      -0.004778  -0.024945   0.349743   0.168305   0.101060   0.003740
     29      -0.005051   0.021972  -0.366497  -0.421831  -0.141493   0.003834
     30      -0.024368   0.026138  -0.405198   0.167116   0.020593   0.001624
     31       0.030312  -0.018535   0.453828  -0.370062  -0.325623   0.014122
     32      -0.012635   0.008643  -0.192025   0.154725  -0.809951   0.043913
     33       0.007635   0.007118  -0.180467   0.425261  -0.271135   0.022934
     34       0.001039  -0.032912   0.502333   0.420859  -0.174541   0.010314
     35       0.006570   0.001688   0.015156   0.207046  -0.043624   0.008733
                 24         25         26         27         28         29    
      0      -0.000669  -0.008031   0.014642   0.000520   0.000469   0.000005
      1       0.002393   0.011531  -0.060958   0.001180   0.000282  -0.000003
      2       0.000399  -0.061353  -0.011869  -0.000459  -0.000120  -0.000024
      3      -0.002115  -0.032570   0.294354  -0.002034  -0.000174  -0.000065
      4       0.001499   0.085372  -0.057621  -0.009803  -0.007339  -0.000004
      5      -0.008689   0.720728   0.187771   0.000573   0.000604   0.000060
      6       0.007612  -0.038757  -0.307915  -0.012413  -0.004462  -0.000010
      7      -0.005150  -0.531502   0.313016   0.002164   0.003405   0.000546
      8       0.008362   0.229287  -0.369372   0.007039   0.006587   0.000406
      9       0.003748   0.186842  -0.193790  -0.016391  -0.005907  -0.000022
     10      -0.017213   0.288160   0.610152  -0.000528   0.001997  -0.000269
     11      -0.009336  -0.069180   0.356068  -0.005057  -0.006398   0.000376
     12       0.048060   0.000584   0.000573  -0.001343  -0.000336   0.000004
     13       0.037463   0.000384   0.000748  -0.000485  -0.000518  -0.000202
     14      -0.028971   0.000303  -0.000911   0.000165   0.000207  -0.000482
     15      -0.000530   0.001054  -0.002299   0.061479   0.049500  -0.002287
     16      -0.000273   0.001569   0.002076   0.032489   0.057546   0.037544
     17       0.000445   0.005936   0.003154  -0.011472  -0.022062   0.093124
     18      -0.413214   0.000441  -0.011691   0.000942   0.000819   0.002481
     19      -0.307897  -0.001517  -0.006868   0.006158  -0.000854  -0.004140
     20       0.533176   0.002330   0.012229   0.007244   0.000974  -0.000065
     21      -0.077352   0.000792  -0.002885  -0.013745  -0.004593   0.000053
     22       0.289290  -0.000833   0.007975   0.000012   0.001606  -0.000030
     23       0.071223  -0.003210   0.003628  -0.000502  -0.000803  -0.000331
     24      -0.198207  -0.003453  -0.003152   0.001661   0.000953  -0.002317
     25      -0.525426  -0.003924  -0.011430  -0.000371  -0.001312   0.002896
     26      -0.183364  -0.001510  -0.003868  -0.009430  -0.000130  -0.002960
     27       0.013283   0.015633   0.023408   0.039079  -0.184930  -0.195606
     28       0.010566   0.010333   0.004321   0.138663  -0.495194  -0.511613
     29      -0.017450  -0.011442  -0.010899   0.141413  -0.436336  -0.443718
     30       0.010670  -0.010915   0.020080  -0.765925  -0.179957  -0.000345
     31      -0.013987  -0.016878  -0.041512  -0.536125  -0.125304   0.002258
     32      -0.004804  -0.083781  -0.037430   0.195888   0.045670   0.006119
     33       0.003357  -0.027092  -0.002433   0.047702  -0.213423   0.222948
     34       0.017729  -0.013473  -0.006100   0.003039  -0.059417   0.065836
     35       0.002609  -0.005609   0.001884  -0.196401   0.651503  -0.662487
                 30         31         32         33         34         35    
      0       0.037838   0.004211   0.000305   0.021147   0.000048   0.000023
      1       0.009911   0.001072  -0.026576  -0.072675  -0.000258  -0.000166
      2      -0.003629  -0.000393  -0.075393   0.025647   0.000096  -0.000163
      3      -0.038387  -0.003234   0.022625   0.089401  -0.000016   0.000036
      4      -0.571930  -0.058986   0.206117   0.776323   0.001288   0.001678
      5       0.053545   0.005467  -0.035269  -0.070589  -0.000107   0.000400
      6      -0.218736  -0.023341  -0.330850  -0.087259  -0.000306  -0.000363
      7       0.259726   0.027531   0.340112   0.080913   0.000142   0.000806
      8       0.465542   0.049622   0.621810   0.181611   0.000448   0.001280
      9      -0.272094  -0.029699   0.304023  -0.296685  -0.000657   0.000021
     10       0.173057   0.018376  -0.176388   0.154173   0.000236  -0.000301
     11      -0.468173  -0.050319   0.462642  -0.467990  -0.000927   0.000210
     12       0.002096  -0.020028  -0.000003   0.000186  -0.060812   0.002696
     13      -0.001919   0.018256   0.000052   0.000071  -0.055338  -0.030815
     14       0.000815  -0.007926   0.000123   0.000115   0.019674  -0.078391
     15      -0.001428  -0.000318  -0.000004  -0.000044   0.000342  -0.000007
     16      -0.001357   0.001325  -0.000072  -0.000152   0.000382   0.000175
     17       0.000499  -0.000549  -0.000169   0.000058  -0.000151   0.000435
     18       0.009821  -0.090948  -0.000184  -0.000036   0.054943   0.104426
     19       0.047198  -0.442924  -0.000997  -0.000493   0.319150   0.558778
     20       0.036912  -0.346044  -0.000740  -0.000469   0.248454   0.421538
     21      -0.053629   0.501703  -0.000015  -0.002298   0.704909   0.004213
     22      -0.029799   0.279955  -0.000020  -0.001392   0.376014  -0.000515
     23       0.009494  -0.089204   0.000006   0.000455  -0.118482  -0.007429
     24       0.013534  -0.125992   0.000274   0.000302   0.081790  -0.146032
     25       0.010263  -0.096953   0.000312   0.000331   0.071648  -0.130733
     26      -0.058141   0.548079  -0.001164  -0.001258  -0.402603   0.673464
     27       0.001157   0.002393   0.000058  -0.000052  -0.000698  -0.002033
     28       0.004102   0.000478   0.000253   0.000372   0.000297  -0.000404
     29       0.003609   0.002732   0.000332   0.000221  -0.001285  -0.002023
     30       0.019082  -0.009758  -0.000057   0.000789   0.001105  -0.000061
     31       0.011984  -0.010332   0.000061   0.000303  -0.001835   0.000187
     32      -0.004349   0.003914   0.000073  -0.000059   0.000759   0.000515
     33       0.001347   0.002460  -0.000028  -0.000084  -0.000784   0.002097
     34       0.000505  -0.001514  -0.000019   0.000167   0.001062  -0.001072
     35      -0.005273  -0.002111   0.000257  -0.000593   0.000811  -0.001563


-----------
IR SPECTRUM
-----------

 Mode    freq (cm**-1)   T**2         TX         TY         TZ
-------------------------------------------------------------------
  10:       101.02    7.918459  ( -0.729960  -2.529987   0.992361)
  11:       231.99   55.619619  (  3.452806  -6.202578   2.285995)
  12:       300.38   29.897553  (  0.178025   1.746621   5.178337)
  13:       334.97   36.537373  ( -5.692614  -1.907845   0.701174)
  14:       538.96   20.452147  (  0.193411  -1.612904  -4.220578)
  15:       563.75   23.161665  (  2.971363   3.582031  -1.225447)
  16:       778.02    9.577921  ( -0.163659   1.138121   2.873294)
  17:       822.98   35.119810  (  5.579756   1.904461  -0.599300)
  18:       963.83   77.506381  ( -6.377593   5.566985  -2.416891)
  19:      1082.21  145.919826  (-11.694635  -2.884063   0.915161)
  20:      1266.64   15.066868  ( -1.181045  -3.435067   1.368325)
  21:      1362.27   18.232701  (  1.196998   3.820479  -1.484534)
  22:      1471.30   14.998705  (  0.091317  -1.410483  -3.605677)
  23:      1567.35   40.109080  ( -0.775919  -3.104304  -5.465375)
  24:      1568.96   37.514575  ( -4.311874  -3.464098   2.631035)
  25:      1628.90   22.203388  (  0.675941  -1.071989   4.538428)
  26:      1630.89   23.774717  ( -1.182203   4.658437   0.822239)
  27:      2893.05  964.502667  (-30.247886  -6.755102   1.984103)
  28:      3347.42   71.209356  ( -7.529532  -3.596663   1.256790)
  29:      3462.31    8.484897  (  0.062492  -1.099648  -2.696621)
  30:      3563.64   17.308534  ( -4.157740   0.118849  -0.087219)
  31:      3571.44   82.981421  (  6.559897  -5.799374   2.513249)
  32:      3700.13   33.368272  (  0.006889   1.879716   5.462132)
  33:      3700.74   31.528562  ( -1.332833   5.126963  -1.861818)
  34:      3750.31  134.058180  (  8.398000   7.511417  -2.666533)
  35:      3751.66  130.318892  ( -0.378434   4.184317  10.614479)

The first frequency considered to be a vibration is 10
The total number of vibrations considered is 26


--------------------------
THERMOCHEMISTRY AT 298.15K
--------------------------

Temperature         ... 298.15 K
[...]
     33       0.042751   0.001476  -0.061971   0.042518  -0.002291  -0.003886
     34      -0.011552   0.006016  -0.439480   0.240981  -0.164888  -0.019955
     35       0.007190  -0.002411   0.061276  -0.147229  -0.226762   0.003504
                 12         13         14         15         16         17    
      0       0.005289  -0.007550  -0.014305  -0.007412  -0.011418   0.015095
      1       0.057872  -0.018277  -0.091102   0.012556   0.022890  -0.020467
      2       0.019777   0.057048   0.011714   0.091958  -0.020648  -0.020565
      3       0.489623   0.055582  -0.435008   0.267150   0.047339  -0.084847
      4      -0.214352   0.047431   0.192389  -0.042857  -0.026784   0.019655
      5       0.000763  -0.155631  -0.072422  -0.122628   0.018135   0.006133
      6      -0.247266  -0.429695   0.026783  -0.517375   0.057409   0.026272
      7      -0.118940   0.120157   0.146133   0.067916  -0.024616   0.003955
      8      -0.062224  -0.175043  -0.020564  -0.162471   0.019405  -0.021063
      9      -0.297139   0.437975   0.469739   0.279249  -0.035536  -0.031132
     10      -0.099301  -0.029354   0.050748  -0.074013   0.022947   0.004458
     11      -0.085285  -0.101974   0.039730  -0.112083  -0.014502   0.023800
     12      -0.005369   0.007860  -0.009390  -0.005868  -0.019751   0.015907
     13      -0.060556   0.020808  -0.089581   0.011749  -0.018814   0.015493
     14      -0.020899  -0.061279   0.010058   0.089114   0.017190   0.023164
     15       0.001421  -0.001630   0.013805   0.008855  -0.008405   0.005552
     16       0.001656  -0.001343   0.113987  -0.016011   0.000258   0.000801
     17       0.000546   0.002945  -0.013619  -0.113829   0.000165   0.001040
     18       0.533295   0.049899   0.442858  -0.266505   0.051989  -0.083195
     19       0.080427  -0.065029   0.069743   0.029836   0.014103   0.005218
     20       0.082512   0.163101   0.002685  -0.151982  -0.006818  -0.020190
     21      -0.306709   0.406461  -0.433729  -0.220719  -0.039894  -0.024540
     22       0.182654  -0.085228   0.166844  -0.004572  -0.012673   0.005817
     23       0.039509   0.180251  -0.030989  -0.149466   0.008223  -0.028403
     24      -0.187498  -0.504083   0.042935   0.509059   0.064602   0.018465
     25       0.182768  -0.001963   0.139163  -0.070780   0.009928  -0.010281
     26       0.032209   0.104406  -0.012042  -0.073811  -0.007563   0.023249
     27       0.128600   0.008180   0.010788   0.010167  -0.204029   0.582166
     28      -0.014323  -0.002941   0.129532  -0.016837   0.027182  -0.073937
     29       0.010685   0.004816  -0.016184  -0.132020  -0.020490   0.050932
     30      -0.074066   0.108682   0.021106   0.014780   0.903993  -0.124324
     31       0.012011  -0.016296   0.127642  -0.017537  -0.113082   0.012859
     32      -0.004883   0.011042  -0.014954  -0.126323   0.077456  -0.015223
     33      -0.054659  -0.117878   0.019291   0.003222  -0.312610  -0.775822
     34       0.006618   0.014062   0.130315  -0.018118   0.043285   0.091827
     35      -0.004198  -0.007261  -0.015538  -0.129020  -0.027767  -0.067749
                 18         19         20         21         22         23    
      0      -0.080774   0.078848  -0.037183   0.000243   0.000011  -0.007006
      1       0.001536  -0.012269   0.007886   0.000824  -0.000506  -0.009146
      2      -0.007526   0.007376  -0.004107  -0.000920  -0.000660   0.059743
      3       0.147215  -0.358272   0.278238   0.005796  -0.006086   0.048319
      4      -0.110646   0.205585  -0.149182   0.003095   0.005035   0.299509
      5      -0.023743   0.025072  -0.013988  -0.011140  -0.006849  -0.657172
      6       0.179801  -0.369233   0.283292   0.006865   0.004137   0.280544
      7      -0.007335   0.035851  -0.030628   0.010787  -0.008807   0.196219
      8       0.106399  -0.192184   0.138125  -0.000547   0.002400   0.134577
      9       0.215498  -0.408729   0.306914  -0.006826  -0.000967  -0.226735
     10       0.041622  -0.064113   0.042574   0.000556  -0.008855  -0.362537
     11      -0.032251   0.061462  -0.042723  -0.000299  -0.011202  -0.346315
     12      -0.076707  -0.078192  -0.044076   0.000120  -0.000026   0.001459
     13       0.018659   0.009113   0.003211   0.000918  -0.001079   0.007907
     14      -0.005626  -0.005797  -0.002469  -0.001166  -0.000604  -0.007961
     15      -0.018723  -0.000995   0.024576  -0.014440   0.001249  -0.000054
     16       0.002943  -0.000351  -0.002922  -0.072822   0.061055  -0.000044
     17      -0.001810   0.000122   0.002445   0.061177   0.073079   0.000840
     18       0.158918   0.369588   0.330700  -0.003933   0.007120   0.001919
     19       0.062910   0.095416   0.075177   0.004094   0.004238  -0.050813
     20       0.053446   0.094555   0.078804  -0.010103  -0.008750   0.121241
     21       0.178434   0.341576   0.300199   0.006970  -0.000202  -0.044654
     22      -0.095003  -0.166650  -0.139359   0.000627  -0.008128   0.043112
     23       0.057430   0.109263   0.091567   0.003498  -0.011276   0.004617
     24       0.177724   0.368451   0.328025  -0.002510  -0.007958   0.021706
     25      -0.033694  -0.050814  -0.041971   0.013642  -0.003551  -0.106708
     26      -0.075452  -0.126444  -0.101735  -0.001131   0.001197  -0.009641
     27       0.710771   0.023947  -0.369315   0.092113   0.051246   0.001507
     28      -0.091629  -0.004187   0.048085   0.218223   0.216482  -0.004276
     29       0.061864   0.001350  -0.031604  -0.671852  -0.321156   0.012246
     30       0.234530   0.015421  -0.282311  -0.020020  -0.005798   0.017026
     31      -0.028374  -0.001950   0.033207  -0.087936  -0.495877   0.002579
     32       0.019869   0.000981  -0.026156   0.037612  -0.635918   0.010059
     33       0.408546   0.019990  -0.339427   0.088562  -0.056153  -0.021914
     34      -0.053542  -0.001105   0.042718   0.680423  -0.406025   0.000663
     35       0.036765   0.002542  -0.030038  -0.046012   0.138337   0.000824
                 24         25         26         27         28         29    
      0       0.004996   0.007188  -0.000296  -0.000188  -0.000303   0.000028
      1       0.039048   0.045833  -0.006588  -0.000017  -0.001245   0.000931
      2       0.012826   0.001124  -0.008019  -0.000010   0.000863   0.001306
      3      -0.171763  -0.204056   0.027972   0.000668  -0.002679   0.004469
      4       0.107605   0.055043  -0.048515   0.000450   0.001982  -0.002847
      5       0.055400   0.207336   0.051028   0.000279   0.000875  -0.000197
      6      -0.000667  -0.062236  -0.026481   0.000620  -0.002251  -0.005050
      7      -0.447382  -0.545721   0.066092  -0.000198  -0.000394   0.000651
      8       0.111512   0.095603  -0.033910  -0.000325  -0.001757  -0.002482
      9       0.100074   0.162943   0.002643   0.000642   0.006238   0.000277
     10      -0.227244  -0.175147   0.077010  -0.000324   0.000391   0.000537
     11      -0.352446  -0.319672   0.099126   0.000224  -0.000475   0.000394
     12      -0.005219   0.005198   0.003279   0.000177  -0.000181   0.000004
     13      -0.045851   0.039412  -0.008624  -0.000051  -0.001230   0.000959
     14       0.000348  -0.010422  -0.060385   0.000030   0.000909   0.001272
     15      -0.000110   0.000035   0.000204   0.000424   0.015849  -0.000184
     16      -0.000185   0.001297   0.000379   0.000260   0.084680  -0.060406
     17      -0.000288   0.000131  -0.000969  -0.000080  -0.059479  -0.085960
     18      -0.158374   0.103436  -0.224151  -0.000464   0.002890  -0.004993
     19       0.041163  -0.091563  -0.326906   0.000342   0.000452  -0.001753
     20      -0.284290   0.337298   0.498523   0.000275   0.001194  -0.001361
     21       0.157977  -0.158752  -0.105774  -0.000658  -0.005550  -0.000374
     22       0.072209   0.009559   0.437897  -0.000173   0.002261  -0.000148
     23       0.318368  -0.197643   0.511308  -0.000005  -0.001452   0.000904
     24       0.075683  -0.019924   0.281658  -0.000516   0.002446   0.005229
     25       0.553126  -0.489599   0.014792   0.000116  -0.000903  -0.000412
     26      -0.039108   0.012346  -0.133810  -0.000527  -0.001880  -0.001428
     27       0.026089   0.006595   0.009819  -0.050268  -0.037747   0.059260
     28      -0.006367   0.007423   0.002365  -0.534415  -0.404689   0.627453
     29       0.008507  -0.009991  -0.011262  -0.218739  -0.169729   0.255110
     30      -0.018817   0.001669   0.007426   0.085202  -0.120598  -0.006474
     31       0.005012   0.008102  -0.011169   0.445933  -0.631888  -0.036394
     32       0.002544   0.005493  -0.015331  -0.351119   0.497828   0.022816
     33      -0.005802  -0.002208  -0.017004  -0.040131  -0.024864  -0.050595
     34      -0.001385   0.021896  -0.004704   0.086102   0.058165   0.106430
     35      -0.000130  -0.003123  -0.003598   0.570613   0.359515   0.714683
                 30         31         32         33         34         35    
      0      -0.032744   0.021716   0.000108  -0.006354   0.012893  -0.000359
      1       0.005261  -0.003483   0.002044   0.003895   0.079714  -0.001363
      2      -0.002374   0.001575   0.002679   0.080394  -0.002824   0.001597
      3       0.204459  -0.132656  -0.013753  -0.157054  -0.338087   0.003132
      4       0.393605  -0.256397  -0.023919  -0.277316  -0.592190   0.005397
      5       0.185858  -0.121006  -0.011109  -0.118683  -0.290714   0.002903
      6       0.187956  -0.122054   0.012315   0.334067   0.035854   0.005578
      7      -0.093083   0.060564  -0.005288  -0.156999  -0.001692  -0.002932
      8      -0.442314   0.288242  -0.026084  -0.713614  -0.073564  -0.012294
      9       0.072614  -0.046899   0.000017  -0.089301   0.123667  -0.003811
     10      -0.374979   0.244181   0.000838   0.380532  -0.508265   0.016382
     11       0.290462  -0.189136   0.000098  -0.279288   0.403376  -0.012587
     12      -0.021385  -0.033453  -0.007913   0.000408   0.000049  -0.007521
     13       0.002906   0.004559  -0.077924   0.003014   0.001577  -0.018135
     14      -0.001315  -0.002061  -0.018898  -0.000826   0.001865   0.078307
     15      -0.002337  -0.000454   0.000007   0.000034   0.000001   0.000034
     16       0.000238   0.000159   0.000240  -0.000015  -0.000264  -0.000014
     17      -0.000197  -0.000094  -0.000044  -0.000248   0.000018  -0.000263
     18       0.083604   0.127868  -0.232030   0.006911   0.006435   0.052108
     19      -0.281385  -0.432598   0.682231  -0.020260  -0.019554  -0.165219
     20      -0.127612  -0.196268   0.309981  -0.009604  -0.008584  -0.058665
     21       0.139635   0.213763   0.269914  -0.014722  -0.001268   0.285571
     22       0.231292   0.355293   0.403277  -0.022096  -0.001912   0.438458
     23      -0.154766  -0.237727  -0.283606   0.014999   0.001796  -0.282035
     24       0.083139   0.126971   0.071741   0.002145  -0.005937  -0.233788
     25       0.008784   0.013568  -0.007982   0.000654  -0.000284  -0.022423
     26       0.301419   0.463011   0.235028   0.006090  -0.019022  -0.742178
     27       0.002853   0.000540  -0.002721  -0.001209  -0.002752   0.000546
     28       0.000132  -0.001449   0.002224  -0.000740  -0.001396   0.000269
     29       0.000421  -0.000586   0.000485  -0.000328  -0.000987   0.000352
     30       0.002898   0.000551   0.001934  -0.001597   0.002035   0.002305
     31      -0.000234  -0.000126   0.000289   0.001031  -0.001263   0.001138
     32       0.000163   0.000157  -0.000254  -0.000711   0.001010  -0.000864
     33       0.002858   0.000426   0.000965   0.002987   0.000211  -0.002551
     34      -0.000460   0.000111  -0.000113  -0.000647   0.000083   0.000026
     35      -0.000032   0.001194   0.001374  -0.001561  -0.000195  -0.001833


-----------
IR SPECTRUM
-----------

 Mode    freq (cm**-1)   T**2         TX         TY         TZ
-------------------------------------------------------------------
   7:       107.06    0.017363  ( -0.121274   0.029089   0.042540)
   8:       178.41    0.035252  (  0.164208  -0.013981   0.089956)
   9:       260.59   13.735112  ( -0.577221  -3.100349   1.946732)
  10:       264.20   13.832380  ( -0.023123   1.992462   3.140372)
  11:       331.85    0.013717  (  0.046674   0.101821  -0.034226)
  12:       577.26    0.053961  ( -0.143671   0.164525   0.079067)
  13:       579.73    0.084833  (  0.117165  -0.150664   0.220013)
  14:       707.28   63.254320  (  1.080796   7.820099  -0.965530)
  15:       708.57   63.555618  (  0.558523  -1.005135  -7.888813)
  16:      1189.19    0.112232  ( -0.330269   0.056134  -0.001707)
  17:      1205.55    0.033122  ( -0.170087   0.061172  -0.021211)
  18:      1216.33    7.549041  (  2.711517  -0.389630   0.211910)
  19:      1240.90    0.650134  ( -0.616698   0.462308  -0.236831)
  20:      1258.72  245.405595  ( 15.474374  -2.100341   1.240121)
  21:      1348.72    9.052715  (  0.460133   2.297499  -1.887456)
  22:      1353.27    9.771395  ( -0.096199  -1.993515  -2.405834)
  23:      1632.52   21.648468  (  0.508824   0.154996  -4.622288)
  24:      1633.48    1.619075  (  0.025884   0.624679  -1.108233)
  25:      1634.11   58.815637  ( -1.065798  -7.548770   0.834133)
  26:      1635.43   37.556344  ( -0.274457   1.263659   5.990341)
  27:      3146.78    0.007038  (  0.020037   0.074194  -0.033642)
  28:      3374.60    4.208458  ( -0.303032  -1.654265   1.174749)
  29:      3376.15    3.964447  (  0.021914   1.120760   1.645559)
  30:      3482.88  102.125646  (  9.986825  -1.346962   0.758069)
  31:      3485.88    4.372748  (  2.073132  -0.232662   0.144011)
  32:      3612.29   56.337188  (  0.841337   7.290737   1.573051)
  33:      3612.54   61.240916  (  0.551561  -0.694621  -7.775230)
  34:      3614.52   64.642737  ( -1.312907  -7.931900   0.063061)
  35:      3615.46   64.187939  (  0.759703   1.886074  -7.749420)

The first frequency considered to be a vibration is 7
The total number of vibrations considered is 29


--------------------------
THERMOCHEMISTRY AT 298.15K
--------------------------

Temperature         ... 298.15 K
Pressure            ... 1.00 atm
Total Mass          ... 49.10 AMU

Throughout the following assumptions are being made:
  (1) The electronic state is orbitally nondegenerate
  (2) There are no thermally accessible electronically excited states
  (3) Hindered rotations indicated by low frequency modes are not
      treated as such but are treated as vibrations and this may
      cause some error
  (4) All equations used are the standard statistical mechanics
      equations for an ideal gas
  (5) All vibrations are strictly harmonic

freq.     107.06  E(vib)   ...       0.45 
freq.     178.41  E(vib)   ...       0.37 
freq.     260.59  E(vib)   ...       0.30 
freq.     264.20  E(vib)   ...       0.29 
freq.     331.85  E(vib)   ...       0.24 
freq.     577.26  E(vib)   ...       0.11 
freq.     579.73  E(vib)   ...       0.11 
freq.     707.28  E(vib)   ...       0.07 
freq.     708.57  E(vib)   ...       0.07 
freq.    1189.19  E(vib)   ...       0.01 
freq.    1205.55  E(vib)   ...       0.01 
freq.    1216.33  E(vib)   ...       0.01 
freq.    1240.90  E(vib)   ...       0.01 
freq.    1258.72  E(vib)   ...       0.01 
freq.    1348.72  E(vib)   ...       0.01 
freq.    1353.27  E(vib)   ...       0.01 
freq.    1632.52  E(vib)   ...       0.00 
freq.    1633.48  E(vib)   ...       0.00 
freq.    1634.11  E(vib)   ...       0.00 
freq.    1635.43  E(vib)   ...       0.00 
freq.    3146.78  E(vib)   ...       0.00 
freq.    3374.60  E(vib)   ...       0.00 
freq.    3376.15  E(vib)   ...       0.00 
freq.    3482.88  E(vib)   ...       0.00 
freq.    3485.88  E(vib)   ...       0.00 
freq.    3612.29  E(vib)   ...       0.00 
freq.    3612.54  E(vib)   ...       0.00 
freq.    3614.52  E(vib)   ...       0.00 
freq.    3615.46  E(vib)   ...       0.00 

------------
INNER ENERGY
------------

The inner energy is: U= E(el) + E(ZPE) + E(vib) + E(rot) + E(trans)
    E(el)   - is the total energy from the electronic structure calculation
              = E(kin-el) + E(nuc-el) + E(el-el) + E(nuc-nuc)
    E(ZPE)  - the the zero temperature vibrational energy from the frequency calculation
    E(vib)  - the the finite temperature correction to E(ZPE) due to population
              of excited vibrational states
    E(rot)  - is the rotational thermal energy
    E(trans)- is the translational thermal energy

Summary of contributions to the inner energy U:
Electronic energy                ...   -152.46157875 Eh
Zero point energy                ...      0.11478384 Eh      72.03 kcal/mol
Thermal vibrational correction   ...      0.00330700 Eh       2.08 kcal/mol
Thermal rotational correction    ...      0.00141627 Eh       0.89 kcal/mol
Thermal translational correction ...      0.00141627 Eh       0.89 kcal/mol
-----------------------------------------------------------------------
Total thermal energy                   -152.34065536 Eh


Summary of corrections to the electronic energy:
(perhaps to be used in another calculation)
Total thermal correction                  0.00613955 Eh       3.85 kcal/mol
Non-thermal (ZPE) correction              0.11478384 Eh      72.03 kcal/mol
-----------------------------------------------------------------------
Total correction                          0.12092339 Eh      75.88 kcal/mol


--------
ENTHALPY
--------

The enthalpy is H = U + kB*T
                kB is Boltzmann's constant
Total free energy                 ...   -152.34065536 Eh 
Thermal Enthalpy correction       ...      0.00094421 Eh       0.59 kcal/mol
-----------------------------------------------------------------------
Total Enthalpy                    ...   -152.33971115 Eh


Note: Rotational entropy computed according to Herzberg 
Infrared and Raman Spectra, Chapter V,1, Van Nostrand Reinhold, 1945 
Point Group:  C1, Symmetry Number:   1  
Rotational constants in cm-1:     1.868548     0.111268     0.111257 

Vibrational entropy computed according to the QRRHO of S. Grimme
Chem.Eur.J. 2012 18 9955


-------
ENTROPY
-------

The entropy contributions are T*S = T*(S(el)+S(vib)+S(rot)+S(trans))
     S(el)   - electronic entropy
     S(vib)  - vibrational entropy
     S(rot)  - rotational entropy
     S(trans)- translational entropy
The entropies will be listed as mutliplied by the temperature to get
units of energy

Electronic entropy                ...      0.00000000 Eh      0.00 kcal/mol
Vibrational entropy               ...      0.00561540 Eh      3.52 kcal/mol
Rotational entropy                ...      0.01128897 Eh      7.08 kcal/mol
Translational entropy             ...      0.01786375 Eh     11.21 kcal/mol
-----------------------------------------------------------------------
Final entropy term                ...      0.03476812 Eh     21.82 kcal/mol


-------------------
GIBBS FREE ENTHALPY
-------------------

The Gibbs free enthalpy is G = H - T*S

Total enthalpy                    ...   -152.33971115 Eh 
Total entropy correction          ...     -0.03476812 Eh    -21.82 kcal/mol
-----------------------------------------------------------------------
Final Gibbs free enthalpy         ...   -152.37447927 Eh

For completeness - the Gibbs free enthalpy minus the electronic energy
G-E(el)                           ...      0.08709948 Eh     54.66 kcal/mol


Timings for individual modules:

Sum of individual times         ...      537.670 sec (=   8.961 min)
GTO integral calculation        ...       75.258 sec (=   1.254 min)  14.0 %
SCF iterations                  ...      282.845 sec (=   4.714 min)  52.6 %
SCF Gradient evaluation         ...      128.111 sec (=   2.135 min)  23.8 %
Geometry relaxation             ...        4.638 sec (=   0.077 min)   0.9 %
Analytical frequency calculation...       46.819 sec (=   0.780 min)   8.7 %
                             ****ORCA TERMINATED NORMALLY****
TOTAL RUN TIME: 0 days 0 hours 9 minutes 13 seconds 776 msec
