      -----------------------------------------------------------      
     |                   =====================                   |     
     |                           x T B                           |     
     |                   =====================                   |     
     |                         S. Grimme                         |     
     |          Mulliken Center for Theoretical Chemistry        |     
     |                    University of Bonn                     |     
      -----------------------------------------------------------      

   * xtb version 6.2.3 (830e466) compiled by 'ehlert@majestix' on 2020-03-16

   xtb is free software: you can redistribute it and/or modify it under
   the terms of the GNU Lesser General Public License as published by
   the Free Software Foundation, either version 3 of the License, or
   (at your option) any later version.
   
   xtb is distributed in the hope that it will be useful,
   but WITHOUT ANY WARRANTY; without even the implied warranty of
   MERCHANTABILITY or FITNESS FOR A PARTICULAR PURPOSE.  See the
   GNU Lesser General Public License for more details.
   
   Cite this work as:
   * S. Grimme, C. Bannwarth, P. Shushkov, J. Chem. Theory Comput., 2017,
     13, 1989-2009. DOI: 10.1021/acs.jctc.7b00118
   * C. Bannwarth, S. Ehlert and S. Grimme., J. Chem. Theory Comput., 2019,
     15, 1652-1671. DOI: 10.1021/acs.jctc.8b01176
   * P. Pracht, E. Caldeweyher, S. Ehlert, S. Grimme, ChemRxiv, 2019, preprint.
     DOI: 10.26434/chemrxiv.8326202.v1
   
   for DFT-D4:
   * E. Caldeweyher, C. Bannwarth and S. Grimme, J. Chem. Phys., 2017,
     147, 034112. DOI: 10.1063/1.4993215
   * E. Caldeweyher, S. Ehlert, A. Hansen, H. Neugebauer, S. Spicher,
     C. Bannwarth and S. Grimme, J. Chem. Phys., 2019, 150, 154122.
     DOI: 10.1063/1.5090222
   
   for sTDA-xTB:
   * S. Grimme and C. Bannwarth, J. Chem. Phys., 2016, 145, 054103.
     DOI: 10.1063/1.4959605
   
   in the mass-spec context:
   * V. Asgeirsson, C. Bauer and S. Grimme, Chem. Sci., 2017, 8, 4879.
     DOI: 10.1039/c7sc00601b
   
   for metadynamics refer to:
   * S. Grimme, J. Chem. Theory Comput., 2019, 155, 2847-2862
     DOI: 10.1021/acs.jctc.9b00143
   
   with help from (in alphabetical order)
   C. Bannwarth, F. Bohle, G. Brandenburg, E. Caldeweyher, M. Checinski,
   S. Dohm, S. Ehlert, S. Ehrlich, F. März, H. Neugebauer, J. Pisarek,
   P. Pracht, P. Shushkov, and S. Spicher.
   
 * started run on 2020/08/20 at 17:46:29.851     

           -------------------------------------------------
          |                Calculation Setup                |
           -------------------------------------------------

          program call               : /u/fd/ball4935/opt/bin/xtb 2_2_xtb.xyz --chrg -1 --grad --gbsa Water
          hostname                   : comp0810
          coordinate file            : 2_2_xtb.xyz
          omp threads                :                     1
          number of atoms            :                     6
          number of electrons        :                    22
          charge                     :                    -1
          spin                       :                   0.0
          first test random number   :      0.27303063832577


molecular fragmentation (1/2 indicates fragments):
122222
# atoms in fragment 1/2:     1     5
 fragment masses (1/2) :       19.00       50.49
CMA distance (Bohr)    :   8.254
constraining FC (au)   :  0.0500
########################################################################
[WARNING] Please study the warnings concerning your input carefully
-2- prog_main: XTBPATH is not set, using XTBHOME instead
-1- prog_main: XTBHOME is not set, using HOME instead
########################################################################
           ------------------------------------------------- 
          |                 G F N 2 - x T B                 |
          | Geometry, Frequencies, Noncovalent interactions |
          |            JCTC 2019 parametrisation            |
           ------------------------------------------------- 
             k(s)              :                1.8500
             k(p)              :                2.2300
             k(d)              :                2.2300
             k(f)              :                2.0000
             kEN (H0ij)        :               -2.0000
             D4 a1             :                0.5200
             D4 a2             :                5.0000
             D4 s6             :                1.0000
             D4 s8             :                2.7000
             D4 s9             :                5.0000
             alphaj            :                2.0000

  Z AO/shell   Hii/eV     exponent
  1     Wed Apr 25 08:07:45 CEST 2018   EN: 2.200 GM2: 0.406  GM3: 0.0800  RAES: 1.40
     1s    -10.707211    1.230000
  6     Wed Apr 25 08:07:45 CEST 2018   EN: 2.550 GM2: 0.538  GM3: 0.1500  RAES: 3.00
     2s    -13.970922    2.096432
     2p    -10.063292    1.800000
  9     Mon Apr 23 13:58:50 CEST 2018   EN: 3.980 GM2: 0.532  GM3: 0.1426  RAES: 2.40
     2s    -23.458179    2.416361
     2p    -15.746583    2.308399
 17     Mon Apr 23 14:09:22 CEST 2018   EN: 3.160 GM2: 0.249  GM3: 0.1495  RAES: 2.50
     3s    -29.278781    2.485265
     3p    -12.673758    2.199650
     3d     -0.240338    2.476089

 Solvent             : Water
 Using internal parameter file: .param_gbsa2_Water
 Gsolv ref. state (COSMO-RS): gsolv [1 M gas/solution]
 temperature (mdtemp)       :    298.150000000000     
 dielectric constant        :    80.2000000000000     
 rho                        :    1.00000000000000     
 mass                       :    18.0000000000000     
 surface tension            :    15.5689454083859     
 probe radius               :   0.975313790000000     
 Gshift (Eh)                :   1.857443126794793E-003
 c1                         :    1.55243817000000     
 soset                      :   0.130326360000000     
 HB correction              :  T
           ------------------------------------------------- 
          |        Self-Consistent Charge Iterations        |
           ------------------------------------------------- 

          ...................................................
          :                      SETUP                      :
          :.................................................:
          :  # basis functions                  21          :
          :  # atomic orbitals                  20          :
          :  # shells                           10          :
          :  # electrons                        22          :
          :  max. iterations                   250          :
          :  Hamiltonian                  GFN2-xTB          :
          :  restarted?                      false          :
          :  GBSA solvation                   true          :
          :  PC potential                    false          :
          :  electronic temp.          300.0000000     K    :
          :  accuracy                    1.0000000          :
          :  -> integral cutoff          0.2500000E+02      :
          :  -> integral neglect         0.1000000E-07      :
          :  -> SCF convergence          0.1000000E-05 Eh   :
          :  -> wf. convergence          0.1000000E-03 e    :
          :  Broyden damping             0.4000000          :
          ...................................................

 iter      E             dE          RMSdq      gap      omega  full diag
   1    -13.2640516 -0.132641E+02  0.541E+00    8.20       0.0  T
   2    -13.3178541 -0.538025E-01  0.322E+00    6.34       1.0  T
   3    -13.3187535 -0.899472E-03  0.174E+00    5.89       1.0  T
   4    -13.3194700 -0.716433E-03  0.451E-01    5.32       1.0  T
   5    -13.3199394 -0.469425E-03  0.242E-01    5.27       1.0  T
   6    -13.3201287 -0.189322E-03  0.132E-01    5.16       1.0  T
   7    -13.3201735 -0.447802E-04  0.103E-02    5.14       3.9  T
   8    -13.3201734  0.141680E-06  0.108E-02    5.14       3.8  T
   9    -13.3201737 -0.295297E-06  0.148E-03    5.14      27.6  T
  10    -13.3201737 -0.249030E-08  0.996E-04    5.14      41.0  T
  11    -13.3201737 -0.236078E-08  0.330E-04    5.14     123.8  T

   *** convergence criteria satisfied after 11 iterations ***

         #    Occupation            Energy/Eh            Energy/eV
      -------------------------------------------------------------
         1        2.0000           -1.0609115             -28.8689
       ...           ...                  ...                  ...
         5        2.0000           -0.5122872             -13.9400
         6        2.0000           -0.5090478             -13.8519
         7        2.0000           -0.4198654             -11.4251
         8        2.0000           -0.4193120             -11.4101
         9        2.0000           -0.3393003              -9.2328
        10        2.0000           -0.3388833              -9.2215
        11        2.0000           -0.3388831              -9.2215 (HOMO)
        12                         -0.1500254              -4.0824 (LUMO)
        13                          0.0077952               0.2121
        14                          0.0087062               0.2369
        15                          0.0193447               0.5264
        16                          0.0194733               0.5299
       ...                                ...                  ...
        20                          0.2118739               5.7654
      -------------------------------------------------------------
                  HL-Gap            0.1888576 Eh            5.1391 eV
             Fermi-level           -0.2444542 Eh           -6.6519 eV

 SCC (total)                   0 d,  0 h,  0 min,  0.006 sec
 SCC setup                      ...        0 min,  0.000 sec (  4.789%)
 Dispersion                     ...        0 min,  0.000 sec (  0.482%)
 integral evaluation            ...        0 min,  0.001 sec ( 17.570%)
 zeroth order Hamiltonian       ...        0 min,  0.000 sec (  0.500%)
 iterations                     ...        0 min,  0.004 sec ( 55.719%)
 molecular gradient             ...        0 min,  0.001 sec ( 18.222%)
 printout                       ...        0 min,  0.000 sec (  1.927%)

         :::::::::::::::::::::::::::::::::::::::::::::::::::::
         ::                     SUMMARY                     ::
         :::::::::::::::::::::::::::::::::::::::::::::::::::::
         :: total energy             -13.270274372940 Eh    ::
         :: total w/o Gsasa/hb       -13.268159329940 Eh    ::
         :: gradient norm              0.061246948226 Eh/a0 ::
         :: HOMO-LUMO gap              5.139078040814 eV    ::
         ::.................................................::
         :: SCC energy               -13.317347147338 Eh    ::
         :: -> isotropic ES            0.279884879127 Eh    ::
         :: -> anisotropic ES         -0.004292838199 Eh    ::
         :: -> anisotropic XC         -0.004346585406 Eh    ::
         :: -> dispersion             -0.001947817693 Eh    ::
         :: -> Gsolv                  -0.139635496122 Eh    ::
         ::    -> Gborn               -0.137520453122 Eh    ::
         ::    -> Gsasa                0.000969069946 Eh    ::
         ::    -> Ghb                 -0.004941556072 Eh    ::
         ::    -> Gshift               0.001857443127 Eh    ::
         :: repulsion energy           0.047073336452 Eh    ::
         :: add. restraining           0.000000000000 Eh    ::
         :::::::::::::::::::::::::::::::::::::::::::::::::::::

           -------------------------------------------------
          |                Property Printout                |
           -------------------------------------------------

    * Orbital Energies and Occupations

         #    Occupation            Energy/Eh            Energy/eV
      -------------------------------------------------------------
         1        2.0000           -1.0609115             -28.8689
         2        2.0000           -0.6116847             -16.6448
         3        2.0000           -0.5955363             -16.2054
         4        2.0000           -0.5132755             -13.9669
         5        2.0000           -0.5122872             -13.9400
         6        2.0000           -0.5090478             -13.8519
         7        2.0000           -0.4198654             -11.4251
         8        2.0000           -0.4193120             -11.4101
         9        2.0000           -0.3393003              -9.2328
        10        2.0000           -0.3388833              -9.2215
        11        2.0000           -0.3388831              -9.2215 (HOMO)
        12                         -0.1500254              -4.0824 (LUMO)
        13                          0.0077952               0.2121
        14                          0.0087062               0.2369
        15                          0.0193447               0.5264
        16                          0.0194733               0.5299
        17                          0.1262127               3.4344
        18                          0.1489754               4.0538
        19                          0.1606213               4.3707
        20                          0.2118739               5.7654
      -------------------------------------------------------------
                  HL-Gap            0.1888576 Eh            5.1391 eV
             Fermi-level           -0.2444542 Eh           -6.6519 eV

     #   Z        covCN         q      C6AA      α(0)
     1   9 F      0.000    -0.999    24.521     5.768
     2  17 Cl     0.892    -0.176   104.659    15.651
     3   6 C      3.650     0.015    20.646     6.527
     4   1 H      0.918     0.051     2.306     2.375
     5   1 H      0.920     0.055     2.260     2.351
     6   1 H      0.920     0.055     2.260     2.351

 Mol. C6AA /au·bohr⁶  :        580.790950
 Mol. C8AA /au·bohr⁸  :      15896.656287
 Mol. α(0) /au        :         35.022273


Wiberg/Mayer (AO) data.
largest (>0.10) Wiberg bond orders for each atom
          total WBO             WBO to atom ...
     1  F   0.001
     2  Cl  1.021        C    3 0.982
     3  C   3.934        H    4 0.984    H    6 0.984    H    5 0.984    Cl   2 0.982
     4  H   0.997        C    3 0.984
     5  H   0.997        C    3 0.984
     6  H   0.997        C    3 0.984

molecular dipole:
                 x           y           z       tot (Debye)
 q only:        5.574       0.188       0.019
   full:        4.991       0.177       0.029      12.693
molecular quadrupole (traceless):
                xx          xy          yy          xz          yz          zz
 q only:      -41.060      -1.750      20.510       0.224      -0.007      20.550
  q+dip:      -44.981      -1.799      22.477       0.407      -0.018      22.504
   full:      -43.979      -1.798      21.973       0.348      -0.013      22.006


           -------------------------------------------------
          | TOTAL ENERGY              -13.270274372940 Eh   |
          | GRADIENT NORM               0.061246948226 Eh/α |
          | HOMO-LUMO GAP               5.139078040814 eV   |
           -------------------------------------------------

------------------------------------------------------------------------
 * finished run on 2020/08/20 at 17:46:29.940     
------------------------------------------------------------------------
 total:
 * wall-time:     0 d,  0 h,  0 min,  0.088 sec
 *  cpu-time:     0 d,  0 h,  0 min,  0.018 sec
 * ratio c/w:     0.207 speedup
 SCF:
 * wall-time:     0 d,  0 h,  0 min,  0.007 sec
 *  cpu-time:     0 d,  0 h,  0 min,  0.007 sec
 * ratio c/w:     0.997 speedup

