      -----------------------------------------------------------      
     |                   =====================                   |     
     |                           x T B                           |     
     |                   =====================                   |     
     |                         S. Grimme                         |     
     |          Mulliken Center for Theoretical Chemistry        |     
     |                    University of Bonn                     |     
      -----------------------------------------------------------      

   * xtb version 6.2.3 (830e466) compiled by 'ehlert@majestix' on 2020-03-16

   xtb is free software: you can redistribute it and/or modify it under
   the terms of the GNU Lesser General Public License as published by
   the Free Software Foundation, either version 3 of the License, or
   (at your option) any later version.
   
   xtb is distributed in the hope that it will be useful,
   but WITHOUT ANY WARRANTY; without even the implied warranty of
   MERCHANTABILITY or FITNESS FOR A PARTICULAR PURPOSE.  See the
   GNU Lesser General Public License for more details.
   
   Cite this work as:
   * S. Grimme, C. Bannwarth, P. Shushkov, J. Chem. Theory Comput., 2017,
     13, 1989-2009. DOI: 10.1021/acs.jctc.7b00118
   * C. Bannwarth, S. Ehlert and S. Grimme., J. Chem. Theory Comput., 2019,
     15, 1652-1671. DOI: 10.1021/acs.jctc.8b01176
   * P. Pracht, E. Caldeweyher, S. Ehlert, S. Grimme, ChemRxiv, 2019, preprint.
     DOI: 10.26434/chemrxiv.8326202.v1
   
   for DFT-D4:
   * E. Caldeweyher, C. Bannwarth and S. Grimme, J. Chem. Phys., 2017,
     147, 034112. DOI: 10.1063/1.4993215
   * E. Caldeweyher, S. Ehlert, A. Hansen, H. Neugebauer, S. Spicher,
     C. Bannwarth and S. Grimme, J. Chem. Phys., 2019, 150, 154122.
     DOI: 10.1063/1.5090222
   
   for sTDA-xTB:
   * S. Grimme and C. Bannwarth, J. Chem. Phys., 2016, 145, 054103.
     DOI: 10.1063/1.4959605
   
   in the mass-spec context:
   * V. Asgeirsson, C. Bauer and S. Grimme, Chem. Sci., 2017, 8, 4879.
     DOI: 10.1039/c7sc00601b
   
   for metadynamics refer to:
   * S. Grimme, J. Chem. Theory Comput., 2019, 155, 2847-2862
     DOI: 10.1021/acs.jctc.9b00143
   
   with help from (in alphabetical order)
   C. Bannwarth, F. Bohle, G. Brandenburg, E. Caldeweyher, M. Checinski,
   S. Dohm, S. Ehlert, S. Ehrlich, F. März, H. Neugebauer, J. Pisarek,
   P. Pracht, P. Shushkov, and S. Spicher.
   
 * started run on 2020/08/20 at 17:46:30.690     

           -------------------------------------------------
          |                Calculation Setup                |
           -------------------------------------------------

          program call               : /u/fd/ball4935/opt/bin/xtb 2_4_xtb.xyz --chrg -1 --grad --gbsa Water
          hostname                   : comp0810
          coordinate file            : 2_4_xtb.xyz
          omp threads                :                     1
          number of atoms            :                     6
          number of electrons        :                    22
          charge                     :                    -1
          spin                       :                   0.0
          first test random number   :      0.42277968811629


molecular fragmentation (1/2 indicates fragments):
122222
# atoms in fragment 1/2:     1     5
 fragment masses (1/2) :       19.00       50.49
CMA distance (Bohr)    :   8.094
constraining FC (au)   :  0.0500
########################################################################
[WARNING] Please study the warnings concerning your input carefully
-2- prog_main: XTBPATH is not set, using XTBHOME instead
-1- prog_main: XTBHOME is not set, using HOME instead
########################################################################
           ------------------------------------------------- 
          |                 G F N 2 - x T B                 |
          | Geometry, Frequencies, Noncovalent interactions |
          |            JCTC 2019 parametrisation            |
           ------------------------------------------------- 
             k(s)              :                1.8500
             k(p)              :                2.2300
             k(d)              :                2.2300
             k(f)              :                2.0000
             kEN (H0ij)        :               -2.0000
             D4 a1             :                0.5200
             D4 a2             :                5.0000
             D4 s6             :                1.0000
             D4 s8             :                2.7000
             D4 s9             :                5.0000
             alphaj            :                2.0000

  Z AO/shell   Hii/eV     exponent
  1     Wed Apr 25 08:07:45 CEST 2018   EN: 2.200 GM2: 0.406  GM3: 0.0800  RAES: 1.40
     1s    -10.707211    1.230000
  6     Wed Apr 25 08:07:45 CEST 2018   EN: 2.550 GM2: 0.538  GM3: 0.1500  RAES: 3.00
     2s    -13.970922    2.096432
     2p    -10.063292    1.800000
  9     Mon Apr 23 13:58:50 CEST 2018   EN: 3.980 GM2: 0.532  GM3: 0.1426  RAES: 2.40
     2s    -23.458179    2.416361
     2p    -15.746583    2.308399
 17     Mon Apr 23 14:09:22 CEST 2018   EN: 3.160 GM2: 0.249  GM3: 0.1495  RAES: 2.50
     3s    -29.278781    2.485265
     3p    -12.673758    2.199650
     3d     -0.240338    2.476089

 Solvent             : Water
 Using internal parameter file: .param_gbsa2_Water
 Gsolv ref. state (COSMO-RS): gsolv [1 M gas/solution]
 temperature (mdtemp)       :    298.150000000000     
 dielectric constant        :    80.2000000000000     
 rho                        :    1.00000000000000     
 mass                       :    18.0000000000000     
 surface tension            :    15.5689454083859     
 probe radius               :   0.975313790000000     
 Gshift (Eh)                :   1.857443126794793E-003
 c1                         :    1.55243817000000     
 soset                      :   0.130326360000000     
 HB correction              :  T
           ------------------------------------------------- 
          |        Self-Consistent Charge Iterations        |
           ------------------------------------------------- 

          ...................................................
          :                      SETUP                      :
          :.................................................:
          :  # basis functions                  21          :
          :  # atomic orbitals                  20          :
          :  # shells                           10          :
          :  # electrons                        22          :
          :  max. iterations                   250          :
          :  Hamiltonian                  GFN2-xTB          :
          :  restarted?                      false          :
          :  GBSA solvation                   true          :
          :  PC potential                    false          :
          :  electronic temp.          300.0000000     K    :
          :  accuracy                    1.0000000          :
          :  -> integral cutoff          0.2500000E+02      :
          :  -> integral neglect         0.1000000E-07      :
          :  -> SCF convergence          0.1000000E-05 Eh   :
          :  -> wf. convergence          0.1000000E-03 e    :
          :  Broyden damping             0.4000000          :
          ...................................................

 iter      E             dE          RMSdq      gap      omega  full diag
   1    -13.3212461 -0.133212E+02  0.591E+00    8.52       0.0  T
   2    -13.3609285 -0.396824E-01  0.346E+00    6.88       1.0  T
   3    -13.3619864 -0.105790E-02  0.159E+00    6.08       1.0  T
   4    -13.3628382 -0.851810E-03  0.515E-01    5.62       1.0  T
   5    -13.3636322 -0.793975E-03  0.243E-01    5.52       1.0  T
   6    -13.3637767 -0.144515E-03  0.997E-02    5.47       1.0  T
   7    -13.3638125 -0.357997E-04  0.139E-02    5.42       2.9  T
   8    -13.3638123  0.149432E-06  0.113E-02    5.42       3.6  T
   9    -13.3638126 -0.271538E-06  0.264E-03    5.42      15.4  T
  10    -13.3638126 -0.151630E-07  0.838E-04    5.42      48.7  T
  11    -13.3638126 -0.115497E-08  0.188E-04    5.42     217.7  T

   *** convergence criteria satisfied after 11 iterations ***

         #    Occupation            Energy/Eh            Energy/eV
      -------------------------------------------------------------
         1        2.0000           -1.0649051             -28.9775
       ...           ...                  ...                  ...
         5        2.0000           -0.5298326             -14.4175
         6        2.0000           -0.5077537             -13.8167
         7        2.0000           -0.4207476             -11.4491
         8        2.0000           -0.4205640             -11.4441
         9        2.0000           -0.3398533              -9.2479
        10        2.0000           -0.3393885              -9.2352
        11        2.0000           -0.3393814              -9.2350 (HOMO)
        12                         -0.1401552              -3.8138 (LUMO)
        13                          0.0160797               0.4376
        14                          0.0161679               0.4400
        15                          0.0198959               0.5414
        16                          0.0210446               0.5727
       ...                                ...                  ...
        20                          0.4073355              11.0842
      -------------------------------------------------------------
                  HL-Gap            0.1992262 Eh            5.4212 eV
             Fermi-level           -0.2397683 Eh           -6.5244 eV

 SCC (total)                   0 d,  0 h,  0 min,  0.006 sec
 SCC setup                      ...        0 min,  0.000 sec (  4.815%)
 Dispersion                     ...        0 min,  0.000 sec (  0.478%)
 integral evaluation            ...        0 min,  0.001 sec ( 17.841%)
 zeroth order Hamiltonian       ...        0 min,  0.000 sec (  0.459%)
 iterations                     ...        0 min,  0.003 sec ( 55.080%)
 molecular gradient             ...        0 min,  0.001 sec ( 18.701%)
 printout                       ...        0 min,  0.000 sec (  1.842%)

         :::::::::::::::::::::::::::::::::::::::::::::::::::::
         ::                     SUMMARY                     ::
         :::::::::::::::::::::::::::::::::::::::::::::::::::::
         :: total energy             -13.253835368062 Eh    ::
         :: total w/o Gsasa/hb       -13.251593501473 Eh    ::
         :: gradient norm              0.145855576961 Eh/a0 ::
         :: HOMO-LUMO gap              5.421220554756 eV    ::
         ::.................................................::
         :: SCC energy               -13.360896173153 Eh    ::
         :: -> isotropic ES            0.280250056508 Eh    ::
         :: -> anisotropic ES         -0.004278183359 Eh    ::
         :: -> anisotropic XC         -0.010287886803 Eh    ::
         :: -> dispersion             -0.001927171308 Eh    ::
         :: -> Gsolv                  -0.139202647317 Eh    ::
         ::    -> Gborn               -0.136960780727 Eh    ::
         ::    -> Gsasa                0.001058991985 Eh    ::
         ::    -> Ghb                 -0.005158301702 Eh    ::
         ::    -> Gshift               0.001857443127 Eh    ::
         :: repulsion energy           0.107061282078 Eh    ::
         :: add. restraining           0.000000000000 Eh    ::
         :::::::::::::::::::::::::::::::::::::::::::::::::::::

           -------------------------------------------------
          |                Property Printout                |
           -------------------------------------------------

    * Orbital Energies and Occupations

         #    Occupation            Energy/Eh            Energy/eV
      -------------------------------------------------------------
         1        2.0000           -1.0649051             -28.9775
         2        2.0000           -0.6326774             -17.2160
         3        2.0000           -0.5960330             -16.2189
         4        2.0000           -0.5311221             -14.4526
         5        2.0000           -0.5298326             -14.4175
         6        2.0000           -0.5077537             -13.8167
         7        2.0000           -0.4207476             -11.4491
         8        2.0000           -0.4205640             -11.4441
         9        2.0000           -0.3398533              -9.2479
        10        2.0000           -0.3393885              -9.2352
        11        2.0000           -0.3393814              -9.2350 (HOMO)
        12                         -0.1401552              -3.8138 (LUMO)
        13                          0.0160797               0.4376
        14                          0.0161679               0.4400
        15                          0.0198959               0.5414
        16                          0.0210446               0.5727
        17                          0.1988042               5.4097
        18                          0.3115461               8.4776
        19                          0.3536682               9.6238
        20                          0.4073355              11.0842
      -------------------------------------------------------------
                  HL-Gap            0.1992262 Eh            5.4212 eV
             Fermi-level           -0.2397683 Eh           -6.5244 eV

     #   Z        covCN         q      C6AA      α(0)
     1   9 F      0.000    -1.000    24.525     5.768
     2  17 Cl     0.902    -0.206   105.638    15.724
     3   6 C      3.681     0.006    20.686     6.514
     4   1 H      0.935     0.067     2.114     2.274
     5   1 H      0.932     0.066     2.126     2.280
     6   1 H      0.932     0.066     2.126     2.280

 Mol. C6AA /au·bohr⁶  :        575.901612
 Mol. C8AA /au·bohr⁸  :      15845.330824
 Mol. α(0) /au        :         34.839314


Wiberg/Mayer (AO) data.
largest (>0.10) Wiberg bond orders for each atom
          total WBO             WBO to atom ...
     1  F   0.001
     2  Cl  0.981        C    3 0.966
     3  C   3.935        H    4 0.990    H    6 0.989    H    5 0.989    Cl   2 0.966
     4  H   0.995        C    3 0.990
     5  H   0.996        C    3 0.989
     6  H   0.996        C    3 0.989

molecular dipole:
                 x           y           z       tot (Debye)
 q only:        5.543       0.343       0.225
   full:        4.903       0.349       0.260      12.510
molecular quadrupole (traceless):
                xx          xy          yy          xz          yz          zz
 q only:      -41.378      -2.822      20.644      -1.173      -0.075      20.734
  q+dip:      -46.053      -2.637      23.002      -0.634      -0.097      23.051
   full:      -44.818      -2.706      22.378      -0.798      -0.089      22.440


           -------------------------------------------------
          | TOTAL ENERGY              -13.253835368062 Eh   |
          | GRADIENT NORM               0.145855576961 Eh/α |
          | HOMO-LUMO GAP               5.421220554756 eV   |
           -------------------------------------------------

------------------------------------------------------------------------
 * finished run on 2020/08/20 at 17:46:30.758     
------------------------------------------------------------------------
 total:
 * wall-time:     0 d,  0 h,  0 min,  0.068 sec
 *  cpu-time:     0 d,  0 h,  0 min,  0.018 sec
 * ratio c/w:     0.270 speedup
 SCF:
 * wall-time:     0 d,  0 h,  0 min,  0.006 sec
 *  cpu-time:     0 d,  0 h,  0 min,  0.006 sec
 * ratio c/w:     0.998 speedup

